# vtk DataFile Version 2.0
Startpositionen
ASCII
DATASET POLYDATA
 POINTS         6744  float

   0.1405   0.2899   0.1379
   0.0459   0.2485   0.1008
   0.1008   0.1682   0.0503
   0.1954   0.2096   0.0874
   0.1384   0.2734   0.1616
   0.0438   0.2321   0.1245
   0.0987   0.1518   0.0740
   0.1933   0.1932   0.1111
   0.2135   0.2329   0.2342
   0.2135   0.1807   0.2248
   0.1047   0.1820   0.2184
   0.1048   0.2341   0.2278
   0.2154   0.2382   0.2045
   0.2153   0.1860   0.1952
   0.1065   0.1873   0.1888
   0.1066   0.2394   0.1981
   0.4128   0.0712   0.1277
   0.4991   0.0133   0.1406
   0.5552   0.0910   0.1142
   0.4690   0.1489   0.1013
   0.4143   0.0797   0.1558
   0.5006   0.0218   0.1688
   0.5567   0.0995   0.1424
   0.4704   0.1574   0.1294
   0.5747   0.1946   0.0477
   0.5765   0.2138   0.1194
   0.5813   0.1123   0.1464
   0.5795   0.0931   0.0747
   0.6033   0.1957   0.0467
   0.6051   0.2149   0.1184
   0.6099   0.1134   0.1454
   0.6081   0.0942   0.0738
   0.7026   0.0760   0.2505
   0.7212   0.1080   0.1986
   0.7971   0.0483   0.1889
   0.7785   0.0163   0.2408
   0.6860   0.0577   0.2333
   0.7046   0.0897   0.1813
   0.7804   0.0300   0.1717
   0.7618  -0.0020   0.2236
   1.2249   0.1163   0.1381
   1.0881   0.0629   0.1621
   1.0513   0.1462   0.1378
   1.1881   0.1997   0.1137
   1.2235   0.1076   0.1104
   1.0867   0.0541   0.1344
   1.0498   0.1375   0.1101
   1.1866   0.1910   0.0861
   1.1829   0.0694   0.1561
   1.1345   0.0782   0.2014
   1.1874   0.1373   0.2465
   1.2358   0.1285   0.2013
   1.1722   0.0909   0.1404
   1.1238   0.0997   0.1857
   1.1766   0.1589   0.2308
   1.2251   0.1501   0.1856
   1.3096   0.1084   0.1392
   1.3428   0.0583   0.0881
   1.4017   0.0256   0.1586
   1.3685   0.0757   0.2097
   1.2895   0.0878   0.1464
   1.3227   0.0377   0.0953
   1.3817   0.0050   0.1658
   1.3485   0.0551   0.2169
   1.5653   0.1396   0.1572
   1.6491   0.0925   0.2058
   1.6945   0.1857   0.2178
   1.6107   0.2327   0.1691
   1.5517   0.1428   0.1838
   1.6355   0.0958   0.2325
   1.6808   0.1889   0.2444
   1.5970   0.2359   0.1958
   0.2051   0.1235   0.3234
   0.1365   0.2240   0.2577
   0.1890   0.2891   0.3024
   0.2576   0.1886   0.3681
   0.2259   0.1226   0.3003
   0.1573   0.2231   0.2345
   0.2098   0.2882   0.2793
   0.2784   0.1877   0.3450
   0.2138   0.2838   0.1319
   0.2622   0.1966   0.1309
   0.3487   0.2446   0.1320
   0.3003   0.3318   0.1330
   0.2136   0.2834   0.1615
   0.2621   0.1962   0.1605
   0.3485   0.2441   0.1616
   0.3001   0.3314   0.1626
   0.5479   0.3883   0.2715
   0.4762   0.3092   0.2284
   0.5027   0.2437   0.3046
   0.5744   0.3228   0.3477
   0.5249   0.3995   0.2891
   0.4532   0.3204   0.2460
   0.4797   0.2549   0.3222
   0.5514   0.3340   0.3653
   0.8225   0.2115   0.2108
   0.7009   0.2829   0.2447
   0.7549   0.3660   0.2633
   0.8764   0.2946   0.2294
   0.8194   0.2200   0.1819
   0.6978   0.2914   0.2157
   0.7518   0.3745   0.2343
   0.8733   0.3031   0.2005
   0.8268   0.3134   0.1421
   0.7703   0.3417   0.1042
   0.7308   0.3841   0.1950
   0.7873   0.3559   0.2328
   0.8424   0.3382   0.1373
   0.7858   0.3664   0.0994
   0.7463   0.4089   0.1902
   0.8029   0.3806   0.2280
   0.9256   0.2604   0.2429
   0.8731   0.2640   0.2267
   0.8846   0.3661   0.2120
   0.9370   0.3626   0.2282
   0.9340   0.2554   0.2144
   0.8816   0.2589   0.1982
   0.8930   0.3610   0.1834
   0.9455   0.3575   0.1997
   1.0794   0.3168   0.1293
   1.1397   0.3189   0.1136
   1.1592   0.2465   0.1786
   1.0988   0.2444   0.1944
   1.0746   0.2967   0.1083
   1.1350   0.2988   0.0926
   1.1544   0.2264   0.1577
   1.0941   0.2243   0.1734
   1.3478   0.1953   0.0780
   1.4243   0.1292   0.0555
   1.4846   0.2004   0.0510
   1.4081   0.2665   0.0735
   1.3535   0.1923   0.1059
   1.4299   0.1261   0.0834
   1.4902   0.1974   0.0789
   1.4138   0.2635   0.1014
   1.4903   0.3203   0.0695
   1.5560   0.3160   0.0876
   1.5292   0.2751   0.1750
   1.4635   0.2794   0.1570
   1.4918   0.2938   0.0576
   1.5575   0.2895   0.0757
   1.5307   0.2486   0.1631
   1.4650   0.2529   0.1450
   0.1300   0.4429   0.1464
   0.1908   0.5111   0.2286
   0.2228   0.5736   0.1532
   0.1620   0.5054   0.0709
   0.1060   0.4598   0.1502
   0.1668   0.5280   0.2324
   0.1988   0.5905   0.1570
   0.1379   0.5223   0.0747
   0.3429   0.3429   0.3500
   0.3653   0.4055   0.2532
   0.3073   0.4758   0.2852
   0.2849   0.4132   0.3820
   0.3672   0.3564   0.3644
   0.3896   0.4190   0.2676
   0.3316   0.4893   0.2996
   0.3092   0.4267   0.3964
   0.5195   0.3775   0.3552
   0.5739   0.4046   0.2532
   0.5245   0.4870   0.2487
   0.4700   0.4599   0.3507
   0.5423   0.3921   0.3713
   0.5967   0.4192   0.2693
   0.5473   0.5016   0.2648
   0.4928   0.4744   0.3667
   0.7571   0.6556   0.2929
   0.8848   0.5821   0.2845
   0.8326   0.4898   0.2997
   0.7049   0.5633   0.3080
   0.7534   0.6527   0.2623
   0.8811   0.5792   0.2539
   0.8289   0.4868   0.2691
   0.7012   0.5603   0.2775
   0.7937   0.3610   0.0914
   0.7275   0.3520   0.0967
   0.7258   0.4074   0.1691
   0.7920   0.4164   0.1637
   0.7892   0.3839   0.0738
   0.7230   0.3748   0.0791
   0.7212   0.4302   0.1515
   0.7875   0.4393   0.1461
   1.0746   0.3704   0.1297
   0.9912   0.4032   0.1054
   0.9517   0.3310   0.1436
   1.0351   0.2982   0.1679
   1.0729   0.3849   0.1553
   0.9895   0.4178   0.1311
   0.9499   0.3455   0.1693
   1.0333   0.3127   0.1935
   1.1830   0.4080   0.0927
   1.1529   0.3430   0.0879
   1.1335   0.3452   0.1794
   1.1636   0.4102   0.1842
   1.1572   0.4204   0.0869
   1.1271   0.3554   0.0821
   1.1076   0.3576   0.1736
   1.1377   0.4227   0.1784
   1.3912   0.4982   0.3095
   1.3104   0.5032   0.3147
   1.3022   0.4662   0.2223
   1.3829   0.4612   0.2171
   1.3902   0.4697   0.3210
   1.3094   0.4747   0.3262
   1.3011   0.4377   0.2338
   1.3819   0.4327   0.2286
   1.6431   0.5756   0.2355
   1.5783   0.5586   0.2926
   1.5844   0.4572   0.2696
   1.6493   0.4741   0.2124
   1.6641   0.5717   0.2582
   1.5993   0.5547   0.3154
   1.6055   0.4533   0.2923
   1.6703   0.4702   0.2352
   0.0428   0.5969   0.0554
   0.0242   0.5217   0.0815
   0.0701   0.5382   0.1616
   0.0887   0.6134   0.1355
   0.0183   0.6071   0.0673
  -0.0002   0.5319   0.0934
   0.0456   0.5484   0.1735
   0.0642   0.6236   0.1474
   0.3885   0.7416   0.1462
   0.3805   0.6556   0.2388
   0.3722   0.7327   0.3097
   0.3802   0.8187   0.2171
   0.3583   0.7412   0.1432
   0.3503   0.6552   0.2358
   0.3420   0.7322   0.3067
   0.3500   0.8182   0.2141
   0.5150   0.5377   0.2351
   0.5907   0.6567   0.2537
   0.6586   0.6071   0.2957
   0.5829   0.4880   0.2771
   0.5286   0.5333   0.2080
   0.6042   0.6523   0.2266
   0.6721   0.6027   0.2686
   0.5964   0.4836   0.2500
   0.6235   0.7101   0.2303
   0.6741   0.7448   0.1685
   0.6014   0.8229   0.1528
   0.5508   0.7882   0.2146
   0.6372   0.7270   0.2511
   0.6879   0.7618   0.1893
   0.6151   0.8398   0.1735
   0.5645   0.8051   0.2353
   0.9056   0.6849   0.2232
   0.9754   0.7502   0.1391
   0.9425   0.6883   0.0638
   0.8727   0.6230   0.1479
   0.8833   0.7026   0.2184
   0.9531   0.7679   0.1343
   0.9202   0.7060   0.0590
   0.8504   0.6407   0.1431
   1.1554   0.6079   0.1793
   1.0794   0.5003   0.1633
   1.0489   0.5339   0.0823
   1.1248   0.6415   0.0983
   1.1773   0.5945   0.1655
   1.1013   0.4869   0.1495
   1.0708   0.5205   0.0685
   1.1467   0.6281   0.0845
   1.1022   0.6756   0.0899
   1.1527   0.7221   0.0849
   1.1805   0.7024   0.1811
   1.1299   0.6559   0.1862
   1.1204   0.6547   0.0804
   1.1710   0.7012   0.0754
   1.1987   0.6815   0.1716
   1.1481   0.6350   0.1766
   1.3566   0.6666   0.2491
   1.4311   0.6715   0.1991
   1.3915   0.7589   0.1486
   1.3170   0.7540   0.1986
   1.3694   0.6846   0.2700
   1.4439   0.6894   0.2201
   1.4043   0.7768   0.1695
   1.3298   0.7720   0.2195
   1.6978   0.6566   0.2364
   1.6211   0.7255   0.2476
   1.5569   0.6525   0.2560
   1.6337   0.5837   0.2449
   1.7021   0.6564   0.2670
   1.6253   0.7253   0.2781
   1.5612   0.6523   0.2866
   1.6379   0.5835   0.2754
   0.1728   0.9295   0.1444
   0.1344   0.8163   0.1512
   0.1695   0.8103   0.2489
   0.2078   0.9235   0.2422
   0.1455   0.9394   0.1548
   0.1071   0.8261   0.1615
   0.1422   0.8201   0.2593
   0.1805   0.9334   0.2525
   0.2333   0.7863   0.0881
   0.2531   0.6867   0.0709
   0.3429   0.7060   0.0625
   0.3231   0.8057   0.0797
   0.2368   0.7822   0.1163
   0.2567   0.6825   0.0991
   0.3465   0.7018   0.0908
   0.3266   0.8015   0.1079
   0.5545   0.9464   0.2481
   0.4636   0.8830   0.2245
   0.4913   0.8162   0.2971
   0.5822   0.8795   0.3208
   0.5380   0.9622   0.2689
   0.4472   0.8988   0.2453
   0.4749   0.8320   0.3180
   0.5657   0.8953   0.3416
   0.7603   0.7743   0.3622
   0.7498   0.8361   0.2635
   0.6557   0.8563   0.2861
   0.6661   0.7945   0.3848
   0.7695   0.8001   0.3774
   0.7590   0.8620   0.2787
   0.6649   0.8822   0.3013
   0.6753   0.8203   0.4000
   0.7508   0.9184   0.0596
   0.7062   0.9479   0.1004
   0.7864   0.9726   0.1703
   0.8311   0.9431   0.1295
   0.7550   0.9435   0.0460
   0.7103   0.9730   0.0868
   0.7906   0.9977   0.1567
   0.8352   0.9682   0.1159
   1.0371   1.0165   0.3615
   1.0603   0.9876   0.2458
   1.1628   0.9618   0.2728
   1.1396   0.9907   0.3885
   1.0282   0.9869   0.3671
   1.0514   0.9581   0.2514
   1.1539   0.9323   0.2784
   1.1307   0.9611   0.3941
   1.2404   0.7521   0.1726
   1.1802   0.7618   0.1133
   1.1314   0.6940   0.1517
   1.1915   0.6843   0.2111
   1.2265   0.7719   0.1899
   1.1663   0.7817   0.1306
   1.1175   0.7139   0.1690
   1.1776   0.7041   0.2284
   1.5042   0.8694   0.2063
   1.6086   0.7861   0.2513
   1.5474   0.7189   0.2690
   1.4430   0.8022   0.2239
   1.5078   0.8587   0.1781
   1.6122   0.7754   0.2232
   1.5510   0.7082   0.2408
   1.4466   0.7915   0.1958
   1.8035   0.9079   0.2183
[...]
POINT_DATA  6744
VECTORS velocity float
   0.040240   0.199173  -0.510188
   0.040240   0.199173  -0.510188
   0.040240   0.199173  -0.510188
   0.040240   0.199173  -0.510188
   0.040240   0.199173  -0.510188
   0.040240   0.199173  -0.510188
   0.040240   0.199173  -0.510188
   0.040240   0.199173  -0.510188
  -0.196212   0.186886  -0.351232
  -0.196212   0.186886  -0.351232
  -0.196212   0.186886  -0.351232
  -0.196212   0.186886  -0.351232
  -0.196212   0.186886  -0.351232
  -0.196212   0.186886  -0.351232
  -0.196212   0.186886  -0.351232
  -0.196212   0.186886  -0.351232
   0.026164  -0.015143  -0.494903
   0.026164  -0.015143  -0.494903
   0.026164  -0.015143  -0.494903
   0.026164  -0.015143  -0.494903
   0.026164  -0.015143  -0.494903
   0.026164  -0.015143  -0.494903
   0.026164  -0.015143  -0.494903
   0.026164  -0.015143  -0.494903
  -0.056528  -0.343714   0.270508
  -0.056528  -0.343714   0.270508
  -0.056528  -0.343714   0.270508
  -0.056528  -0.343714   0.270508
  -0.056528  -0.343714   0.270508
  -0.056528  -0.343714   0.270508
  -0.056528  -0.343714   0.270508
  -0.056528  -0.343714   0.270508
  -0.118679  -0.014192  -0.255577
  -0.118679  -0.014192  -0.255577
  -0.118679  -0.014192  -0.255577
  -0.118679  -0.014192  -0.255577
  -0.118679  -0.014192  -0.255577
  -0.118679  -0.014192  -0.255577
  -0.118679  -0.014192  -0.255577
  -0.118679  -0.014192  -0.255577
   0.142393   0.117531  -0.462454
   0.142393   0.117531  -0.462454
   0.142393   0.117531  -0.462454
   0.142393   0.117531  -0.462454
   0.142393   0.117531  -0.462454
   0.142393   0.117531  -0.462454
   0.142393   0.117531  -0.462454
   0.142393   0.117531  -0.462454
   0.046010   0.206220  -0.292128
   0.046010   0.206220  -0.292128
   0.046010   0.206220  -0.292128
   0.046010   0.206220  -0.292128
   0.046010   0.206220  -0.292128
   0.046010   0.206220  -0.292128
   0.046010   0.206220  -0.292128
   0.046010   0.206220  -0.292128
  -0.110604  -0.064387  -0.460009
  -0.110604  -0.064387  -0.460009
  -0.110604  -0.064387  -0.460009
  -0.110604  -0.064387  -0.460009
  -0.110604  -0.064387  -0.460009
  -0.110604  -0.064387  -0.460009
  -0.110604  -0.064387  -0.460009
  -0.110604  -0.064387  -0.460009
   0.048583   0.134177  -0.398590
   0.048583   0.134177  -0.398590
   0.048583   0.134177  -0.398590
   0.048583   0.134177  -0.398590
   0.048583   0.134177  -0.398590
   0.048583   0.134177  -0.398590
   0.048583   0.134177  -0.398590
   0.048583   0.134177  -0.398590
   0.217719  -0.145933  -0.215127
   0.217719  -0.145933  -0.215127
   0.217719  -0.145933  -0.215127
   0.217719  -0.145933  -0.215127
   0.217719  -0.145933  -0.215127
   0.217719  -0.145933  -0.215127
   0.217719  -0.145933  -0.215127
   0.217719  -0.145933  -0.215127
  -0.001381  -0.032200  -0.479703
  -0.001381  -0.032200  -0.479703
  -0.001381  -0.032200  -0.479703
  -0.001381  -0.032200  -0.479703
  -0.001381  -0.032200  -0.479703
  -0.001381  -0.032200  -0.479703
  -0.001381  -0.032200  -0.479703
  -0.001381  -0.032200  -0.479703
   0.075432   0.007964  -0.223070
   0.075432   0.007964  -0.223070
   0.075432   0.007964  -0.223070
   0.075432   0.007964  -0.223070
   0.075432   0.007964  -0.223070
   0.075432   0.007964  -0.223070
   0.075432   0.007964  -0.223070
   0.075432   0.007964  -0.223070
   0.197018   0.014453  -0.361166
   0.197018   0.014453  -0.361166
   0.197018   0.014453  -0.361166
   0.197018   0.014453  -0.361166
   0.197018   0.014453  -0.361166
   0.197018   0.014453  -0.361166
   0.197018   0.014453  -0.361166
   0.197018   0.014453  -0.361166
  -0.024502   0.063098  -0.427235
  -0.024502   0.063098  -0.427235
  -0.024502   0.063098  -0.427235
  -0.024502   0.063098  -0.427235
  -0.024502   0.063098  -0.427235
  -0.024502   0.063098  -0.427235
  -0.024502   0.063098  -0.427235
  -0.024502   0.063098  -0.427235
  -0.210028  -0.019429  -0.353989
  -0.210028  -0.019429  -0.353989
  -0.210028  -0.019429  -0.353989
  -0.210028  -0.019429  -0.353989
  -0.210028  -0.019429  -0.353989
  -0.210028  -0.019429  -0.353989
  -0.210028  -0.019429  -0.353989
  -0.210028  -0.019429  -0.353989
  -0.169364  -0.016676  -0.457431
  -0.169364  -0.016676  -0.457431
  -0.169364  -0.016676  -0.457431
  -0.169364  -0.016676  -0.457431
  -0.169364  -0.016676  -0.457431
  -0.169364  -0.016676  -0.457431
  -0.169364  -0.016676  -0.457431
  -0.169364  -0.016676  -0.457431
   0.014249  -0.130483  -0.541490
   0.014249  -0.130483  -0.541490
   0.014249  -0.130483  -0.541490
   0.014249  -0.130483  -0.541490
   0.014249  -0.130483  -0.541490
   0.014249  -0.130483  -0.541490
   0.014249  -0.130483  -0.541490
   0.014249  -0.130483  -0.541490
  -0.137800   0.003989  -0.494118
  -0.137800   0.003989  -0.494118
  -0.137800   0.003989  -0.494118
  -0.137800   0.003989  -0.494118
  -0.137800   0.003989  -0.494118
  -0.137800   0.003989  -0.494118
  -0.137800   0.003989  -0.494118
  -0.137800   0.003989  -0.494118
   0.124246   0.082614  -0.468456
   0.124246   0.082614  -0.468456
   0.124246   0.082614  -0.468456
   0.124246   0.082614  -0.468456
   0.124246   0.082614  -0.468456
   0.124246   0.082614  -0.468456
   0.124246   0.082614  -0.468456
   0.124246   0.082614  -0.468456
   0.116397  -0.113113  -0.170365
   0.116397  -0.113113  -0.170365
   0.116397  -0.113113  -0.170365
   0.116397  -0.113113  -0.170365
   0.116397  -0.113113  -0.170365
   0.116397  -0.113113  -0.170365
   0.116397  -0.113113  -0.170365
   0.116397  -0.113113  -0.170365
   0.150053   0.020847  -0.241677
   0.150053   0.020847  -0.241677
   0.150053   0.020847  -0.241677
   0.150053   0.020847  -0.241677
   0.150053   0.020847  -0.241677
   0.150053   0.020847  -0.241677
   0.150053   0.020847  -0.241677
   0.150053   0.020847  -0.241677
   0.246968   0.185165  -0.250353
   0.246968   0.185165  -0.250353
   0.246968   0.185165  -0.250353
   0.246968   0.185165  -0.250353
   0.246968   0.185165  -0.250353
   0.246968   0.185165  -0.250353
   0.246968   0.185165  -0.250353
   0.246968   0.185165  -0.250353
  -0.132495  -0.006497  -0.488876
  -0.132495  -0.006497  -0.488876
  -0.132495  -0.006497  -0.488876
  -0.132495  -0.006497  -0.488876
  -0.132495  -0.006497  -0.488876
  -0.132495  -0.006497  -0.488876
  -0.132495  -0.006497  -0.488876
  -0.132495  -0.006497  -0.488876
  -0.039297  -0.140047  -0.463349
  -0.039297  -0.140047  -0.463349
  -0.039297  -0.140047  -0.463349
  -0.039297  -0.140047  -0.463349
  -0.039297  -0.140047  -0.463349
  -0.039297  -0.140047  -0.463349
  -0.039297  -0.140047  -0.463349
  -0.039297  -0.140047  -0.463349
  -0.121158  -0.138123  -0.469371
  -0.121158  -0.138123  -0.469371
  -0.121158  -0.138123  -0.469371
  -0.121158  -0.138123  -0.469371
  -0.121158  -0.138123  -0.469371
  -0.121158  -0.138123  -0.469371
  -0.121158  -0.138123  -0.469371
  -0.121158  -0.138123  -0.469371
  -0.131892  -0.004040  -0.274506
  -0.131892  -0.004040  -0.274506
  -0.131892  -0.004040  -0.274506
  -0.131892  -0.004040  -0.274506
  -0.131892  -0.004040  -0.274506
  -0.131892  -0.004040  -0.274506
  -0.131892  -0.004040  -0.274506
  -0.131892  -0.004040  -0.274506
   0.199146   0.041695  -0.402654
   0.199146   0.041695  -0.402654
   0.199146   0.041695  -0.402654
   0.199146   0.041695  -0.402654
   0.199146   0.041695  -0.402654
   0.199146   0.041695  -0.402654
   0.199146   0.041695  -0.402654
   0.199146   0.041695  -0.402654
  -0.078663  -0.134629  -0.497525
  -0.078663  -0.134629  -0.497525
  -0.078663  -0.134629  -0.497525
  -0.078663  -0.134629  -0.497525
  -0.078663  -0.134629  -0.497525
  -0.078663  -0.134629  -0.497525
  -0.078663  -0.134629  -0.497525
  -0.078663  -0.134629  -0.497525
   0.157567   0.149579  -0.350887
   0.157567   0.149579  -0.350887
   0.157567   0.149579  -0.350887
   0.157567   0.149579  -0.350887
   0.157567   0.149579  -0.350887
   0.157567   0.149579  -0.350887
   0.157567   0.149579  -0.350887
   0.157567   0.149579  -0.350887
   0.226327  -0.160453  -0.301630
   0.226327  -0.160453  -0.301630
   0.226327  -0.160453  -0.301630
   0.226327  -0.160453  -0.301630
   0.226327  -0.160453  -0.301630
   0.226327  -0.160453  -0.301630
   0.226327  -0.160453  -0.301630
   0.226327  -0.160453  -0.301630
  -0.068779   0.209073  -0.384350
  -0.068779   0.209073  -0.384350
  -0.068779   0.209073  -0.384350
  -0.068779   0.209073  -0.384350
  -0.068779   0.209073  -0.384350
  -0.068779   0.209073  -0.384350
  -0.068779   0.209073  -0.384350
  -0.068779   0.209073  -0.384350
  -0.052346   0.019684   0.406696
  -0.052346   0.019684   0.406696
  -0.052346   0.019684   0.406696
  -0.052346   0.019684   0.406696
  -0.052346   0.019684   0.406696
  -0.052346   0.019684   0.406696
  -0.052346   0.019684   0.406696
  -0.052346   0.019684   0.406696
   0.105131  -0.144551  -0.490342
   0.105131  -0.144551  -0.490342
   0.105131  -0.144551  -0.490342
   0.105131  -0.144551  -0.490342
   0.105131  -0.144551  -0.490342
   0.105131  -0.144551  -0.490342
   0.105131  -0.144551  -0.490342
   0.105131  -0.144551  -0.490342
  -0.077847  -0.040108  -0.493139
  -0.077847  -0.040108  -0.493139
  -0.077847  -0.040108  -0.493139
  -0.077847  -0.040108  -0.493139
  -0.077847  -0.040108  -0.493139
  -0.077847  -0.040108  -0.493139
  -0.077847  -0.040108  -0.493139
  -0.077847  -0.040108  -0.493139
  -0.055647   0.055853  -0.431120
  -0.055647   0.055853  -0.431120
  -0.055647   0.055853  -0.431120
  -0.055647   0.055853  -0.431120
  -0.055647   0.055853  -0.431120
  -0.055647   0.055853  -0.431120
  -0.055647   0.055853  -0.431120
  -0.055647   0.055853  -0.431120
   0.113517   0.080609  -0.328738
   0.113517   0.080609  -0.328738
   0.113517   0.080609  -0.328738
   0.113517   0.080609  -0.328738
   0.113517   0.080609  -0.328738
   0.113517   0.080609  -0.328738
   0.113517   0.080609  -0.328738
   0.113517   0.080609  -0.328738
   0.129039   0.008209  -0.447921
   0.129039   0.008209  -0.447921
   0.129039   0.008209  -0.447921
   0.129039   0.008209  -0.447921
   0.129039   0.008209  -0.447921
   0.129039   0.008209  -0.447921
   0.129039   0.008209  -0.447921
   0.129039   0.008209  -0.447921
   0.012205  -0.156132  -0.527427
   0.012205  -0.156132  -0.527427
   0.012205  -0.156132  -0.527427
   0.012205  -0.156132  -0.527427
   0.012205  -0.156132  -0.527427
   0.012205  -0.156132  -0.527427
   0.012205  -0.156132  -0.527427
   0.012205  -0.156132  -0.527427
   0.095124   0.092117  -0.253919
   0.095124   0.092117  -0.253919
   0.095124   0.092117  -0.253919
   0.095124   0.092117  -0.253919
   0.095124   0.092117  -0.253919
   0.095124   0.092117  -0.253919
   0.095124   0.092117  -0.253919
   0.095124   0.092117  -0.253919
   0.118525  -0.038080  -0.155879
   0.118525  -0.038080  -0.155879
   0.118525  -0.038080  -0.155879
   0.118525  -0.038080  -0.155879
   0.118525  -0.038080  -0.155879
   0.118525  -0.038080  -0.155879
   0.118525  -0.038080  -0.155879
   0.118525  -0.038080  -0.155879
   0.013518   0.109153  -0.485248
   0.013518   0.109153  -0.485248
   0.013518   0.109153  -0.485248
   0.013518   0.109153  -0.485248
   0.013518   0.109153  -0.485248
   0.013518   0.109153  -0.485248
   0.013518   0.109153  -0.485248
   0.013518   0.109153  -0.485248
   0.114423   0.156994  -0.292164
   0.114423   0.156994  -0.292164
   0.114423   0.156994  -0.292164
   0.114423   0.156994  -0.292164
   0.114423   0.156994  -0.292164
   0.114423   0.156994  -0.292164
   0.114423   0.156994  -0.292164
   0.114423   0.156994  -0.292164
  -0.070313  -0.138332  -0.424437
  -0.070313  -0.138332  -0.424437
  -0.070313  -0.138332  -0.424437
  -0.070313  -0.138332  -0.424437
  -0.070313  -0.138332  -0.424437
  -0.070313  -0.138332  -0.424437
  -0.070313  -0.138332  -0.424437
  -0.070313  -0.138332  -0.424437
   0.215974  -0.048934  -0.356015
   0.215974  -0.048934  -0.356015
   0.215974  -0.048934  -0.356015
   0.215974  -0.048934  -0.356015
   0.215974  -0.048934  -0.356015
   0.215974  -0.048934  -0.356015
   0.215974  -0.048934  -0.356015
   0.215974  -0.048934  -0.356015
   0.231391   0.099896  -0.311782
   0.231391   0.099896  -0.311782
   0.231391   0.099896  -0.311782
   0.231391   0.099896  -0.311782
   0.231391   0.099896  -0.311782
   0.231391   0.099896  -0.311782
   0.231391   0.099896  -0.311782
   0.231391   0.099896  -0.311782
   0.156552  -0.050939  -0.347614
   0.156552  -0.050939  -0.347614
   0.156552  -0.050939  -0.347614
   0.156552  -0.050939  -0.347614
   0.156552  -0.050939  -0.347614
   0.156552  -0.050939  -0.347614
   0.156552  -0.050939  -0.347614
   0.156552  -0.050939  -0.347614
  -0.020659  -0.173106  -0.525310
  -0.020659  -0.173106  -0.525310
  -0.020659  -0.173106  -0.525310
  -0.020659  -0.173106  -0.525310
  -0.020659  -0.173106  -0.525310
  -0.020659  -0.173106  -0.525310
  -0.020659  -0.173106  -0.525310
  -0.020659  -0.173106  -0.525310
  -0.077309   0.004327  -0.447499
  -0.077309   0.004327  -0.447499
  -0.077309   0.004327  -0.447499
  -0.077309   0.004327  -0.447499
  -0.077309   0.004327  -0.447499
  -0.077309   0.004327  -0.447499
  -0.077309   0.004327  -0.447499
  -0.077309   0.004327  -0.447499
  -0.088685  -0.023679  -0.541085
  -0.088685  -0.023679  -0.541085
  -0.088685  -0.023679  -0.541085
  -0.088685  -0.023679  -0.541085
  -0.088685  -0.023679  -0.541085
  -0.088685  -0.023679  -0.541085
  -0.088685  -0.023679  -0.541085
  -0.088685  -0.023679  -0.541085
   0.205694   0.067232  -0.240263
   0.205694   0.067232  -0.240263
   0.205694   0.067232  -0.240263
   0.205694   0.067232  -0.240263
   0.205694   0.067232  -0.240263
   0.205694   0.067232  -0.240263
   0.205694   0.067232  -0.240263
   0.205694   0.067232  -0.240263
  -0.137833  -0.182427  -0.453867
  -0.137833  -0.182427  -0.453867
  -0.137833  -0.182427  -0.453867
  -0.137833  -0.182427  -0.453867
  -0.137833  -0.182427  -0.453867
  -0.137833  -0.182427  -0.453867
  -0.137833  -0.182427  -0.453867
  -0.137833  -0.182427  -0.453867
   0.186441  -0.207213  -0.436592
   0.186441  -0.207213  -0.436592
   0.186441  -0.207213  -0.436592
   0.186441  -0.207213  -0.436592
   0.186441  -0.207213  -0.436592
   0.186441  -0.207213  -0.436592
   0.186441  -0.207213  -0.436592
   0.186441  -0.207213  -0.436592
   0.123691   0.021889  -0.516691
   0.123691   0.021889  -0.516691
   0.123691   0.021889  -0.516691
   0.123691   0.021889  -0.516691
   0.123691   0.021889  -0.516691
   0.123691   0.021889  -0.516691
   0.123691   0.021889  -0.516691
   0.123691   0.021889  -0.516691
  -0.264547   0.137619   0.279739
  -0.264547   0.137619   0.279739
  -0.264547   0.137619   0.279739
  -0.264547   0.137619   0.279739
  -0.264547   0.137619   0.279739
  -0.264547   0.137619   0.279739
  -0.264547   0.137619   0.279739
  -0.264547   0.137619   0.279739
   0.224411   0.017250  -0.475498
   0.224411   0.017250  -0.475498
   0.224411   0.017250  -0.475498
   0.224411   0.017250  -0.475498
   0.224411   0.017250  -0.475498
   0.224411   0.017250  -0.475498
   0.224411   0.017250  -0.475498
   0.224411   0.017250  -0.475498
  -0.121816  -0.200280  -0.437447
  -0.121816  -0.200280  -0.437447
  -0.121816  -0.200280  -0.437447
  -0.121816  -0.200280  -0.437447
  -0.121816  -0.200280  -0.437447
  -0.121816  -0.200280  -0.437447
  -0.121816  -0.200280  -0.437447
  -0.121816  -0.200280  -0.437447
  -0.136445   0.181988  -0.376667
  -0.136445   0.181988  -0.376667
  -0.136445   0.181988  -0.376667
  -0.136445   0.181988  -0.376667
  -0.136445   0.181988  -0.376667
  -0.136445   0.181988  -0.376667
  -0.136445   0.181988  -0.376667
  -0.136445   0.181988  -0.376667
   0.035400   0.011809  -0.301256
   0.035400   0.011809  -0.301256
   0.035400   0.011809  -0.301256
   0.035400   0.011809  -0.301256
   0.035400   0.011809  -0.301256
   0.035400   0.011809  -0.301256
   0.035400   0.011809  -0.301256
   0.035400   0.011809  -0.301256
   0.126925  -0.082537  -0.263851
   0.126925  -0.082537  -0.263851
   0.126925  -0.082537  -0.263851
   0.126925  -0.082537  -0.263851
   0.126925  -0.082537  -0.263851
   0.126925  -0.082537  -0.263851
   0.126925  -0.082537  -0.263851
   0.126925  -0.082537  -0.263851
   0.231947   0.136741  -0.193669
   0.231947   0.136741  -0.193669
   0.231947   0.136741  -0.193669
   0.231947   0.136741  -0.193669
   0.231947   0.136741  -0.193669
   0.231947   0.136741  -0.193669
   0.231947   0.136741  -0.193669
   0.231947   0.136741  -0.193669
   0.090456   0.107393  -0.516262
   0.090456   0.107393  -0.516262
   0.090456   0.107393  -0.516262
   0.090456   0.107393  -0.516262
   0.090456   0.107393  -0.516262
   0.090456   0.107393  -0.516262
   0.090456   0.107393  -0.516262
   0.090456   0.107393  -0.516262
   0.111538  -0.027437  -0.430139
   0.111538  -0.027437  -0.430139
   0.111538  -0.027437  -0.430139
   0.111538  -0.027437  -0.430139
   0.111538  -0.027437  -0.430139
   0.111538  -0.027437  -0.430139
   0.111538  -0.027437  -0.430139
   0.111538  -0.027437  -0.430139
  -0.115770   0.065331  -0.217004
  -0.115770   0.065331  -0.217004
  -0.115770   0.065331  -0.217004
  -0.115770   0.065331  -0.217004
  -0.115770   0.065331  -0.217004
  -0.115770   0.065331  -0.217004
  -0.115770   0.065331  -0.217004
  -0.115770   0.065331  -0.217004
  -0.082366   0.176788  -0.510199
  -0.082366   0.176788  -0.510199
  -0.082366   0.176788  -0.510199
  -0.082366   0.176788  -0.510199
  -0.082366   0.176788  -0.510199
  -0.082366   0.176788  -0.510199
  -0.082366   0.176788  -0.510199
  -0.082366   0.176788  -0.510199
  -0.023872   0.115893  -0.351089
  -0.023872   0.115893  -0.351089
  -0.023872   0.115893  -0.351089
  -0.023872   0.115893  -0.351089
  -0.023872   0.115893  -0.351089
  -0.023872   0.115893  -0.351089
  -0.023872   0.115893  -0.351089
  -0.023872   0.115893  -0.351089
   0.093664   0.068633  -0.348411
   0.093664   0.068633  -0.348411
   0.093664   0.068633  -0.348411
   0.093664   0.068633  -0.348411
   0.093664   0.068633  -0.348411
   0.093664   0.068633  -0.348411
   0.093664   0.068633  -0.348411
   0.093664   0.068633  -0.348411
   0.039425   0.114804  -0.301203
   0.039425   0.114804  -0.301203
   0.039425   0.114804  -0.301203
   0.039425   0.114804  -0.301203
   0.039425   0.114804  -0.301203
   0.039425   0.114804  -0.301203
   0.039425   0.114804  -0.301203
   0.039425   0.114804  -0.301203
   0.199592   0.064429  -0.320149
   0.199592   0.064429  -0.320149
   0.199592   0.064429  -0.320149
   0.199592   0.064429  -0.320149
   0.199592   0.064429  -0.320149
   0.199592   0.064429  -0.320149
   0.199592   0.064429  -0.320149
   0.199592   0.064429  -0.320149
   0.051191  -0.020611  -0.292522
   0.051191  -0.020611  -0.292522
   0.051191  -0.020611  -0.292522
   0.051191  -0.020611  -0.292522
   0.051191  -0.020611  -0.292522
   0.051191  -0.020611  -0.292522
   0.051191  -0.020611  -0.292522
   0.051191  -0.020611  -0.292522
  -0.093202   0.162651  -0.326630
  -0.093202   0.162651  -0.326630
  -0.093202   0.162651  -0.326630
  -0.093202   0.162651  -0.326630
  -0.093202   0.162651  -0.326630
  -0.093202   0.162651  -0.326630
  -0.093202   0.162651  -0.326630
  -0.093202   0.162651  -0.326630
  -0.067663  -0.006803  -0.320927
  -0.067663  -0.006803  -0.320927
  -0.067663  -0.006803  -0.320927
  -0.067663  -0.006803  -0.320927
  -0.067663  -0.006803  -0.320927
  -0.067663  -0.006803  -0.320927
  -0.067663  -0.006803  -0.320927
  -0.067663  -0.006803  -0.320927
   0.071013   0.149343  -0.421692
   0.071013   0.149343  -0.421692
   0.071013   0.149343  -0.421692
   0.071013   0.149343  -0.421692
   0.071013   0.149343  -0.421692
   0.071013   0.149343  -0.421692
   0.071013   0.149343  -0.421692
   0.071013   0.149343  -0.421692
   0.046208  -0.059370  -0.301953
   0.046208  -0.059370  -0.301953
   0.046208  -0.059370  -0.301953
   0.046208  -0.059370  -0.301953
   0.046208  -0.059370  -0.301953
   0.046208  -0.059370  -0.301953
   0.046208  -0.059370  -0.301953
   0.046208  -0.059370  -0.301953
  -0.012947   0.024236  -0.514719
  -0.012947   0.024236  -0.514719
  -0.012947   0.024236  -0.514719