# vtk DataFile Version 2.0
Startpositionen
ASCII
DATASET POLYDATA
 POINTS         6744  float

   0.1648   0.3550   0.0443
   0.0627   0.3148   0.0461
   0.1028   0.2129   0.0473
   0.2049   0.2530   0.0454
   0.1651   0.3554   0.0732
   0.0631   0.3153   0.0751
   0.1032   0.2133   0.0762
   0.2052   0.2535   0.0744
   0.1737   0.2846   0.1123
   0.1766   0.2317   0.1129
   0.0680   0.2258   0.1072
   0.0651   0.2787   0.1066
   0.1753   0.2844   0.0822
   0.1782   0.2315   0.0828
   0.0695   0.2255   0.0771
   0.0667   0.2784   0.0765
   0.4053   0.0493   0.0446
   0.5014   0.0077   0.0456
   0.5409   0.0990   0.0459
   0.4448   0.1406   0.0449
   0.4050   0.0494   0.0740
   0.5011   0.0077   0.0751
   0.5406   0.0990   0.0753
   0.4445   0.1406   0.0743
   0.5559   0.1065   0.0461
   0.5579   0.1242   0.1182
   0.5654   0.0223   0.1429
   0.5635   0.0046   0.0709
   0.5845   0.1083   0.0449
   0.5865   0.1260   0.1169
   0.5940   0.0241   0.1417
   0.5921   0.0064   0.0697
   0.6635   0.0707   0.1130
   0.6887   0.1013   0.0630
   0.7689   0.0470   0.0703
   0.7437   0.0165   0.1203
   0.6514   0.0503   0.0944
   0.6766   0.0809   0.0444
   0.7568   0.0266   0.0517
   0.7315  -0.0039   0.1017
   1.2313   0.0950   0.0727
   1.0905   0.0471   0.0780
   1.0607   0.1360   0.0889
   1.2015   0.1839   0.0835
   1.2292   0.0978   0.0439
   1.0884   0.0500   0.0492
   1.0587   0.1388   0.0601
   1.1994   0.1867   0.0547
   1.2057   0.1007   0.0999
   1.1592   0.1296   0.1383
   1.2100   0.2053   0.1428
   1.2565   0.1763   0.1044
   1.1926   0.1108   0.0764
   1.1461   0.1397   0.1149
   1.1970   0.2154   0.1193
   1.2434   0.1865   0.0809
   1.2977   0.1076   0.1461
   1.3248   0.0678   0.0836
   1.3915   0.0245   0.1401
   1.3644   0.0643   0.2026
   1.2787   0.0856   0.1518
   1.3058   0.0458   0.0893
   1.3725   0.0026   0.1458
   1.3453   0.0424   0.2083
   1.6017   0.1649   0.0587
   1.7056   0.1367   0.0574
   1.7326   0.2367   0.0459
   1.6287   0.2649   0.0472
   1.6029   0.1679   0.0886
   1.7069   0.1398   0.0873
   1.7338   0.2398   0.0759
   1.6299   0.2680   0.0772
   0.2668   0.0845   0.1718
   0.1987   0.1786   0.0967
   0.2471   0.2479   0.1398
   0.3151   0.1538   0.2149
   0.2887   0.0828   0.1498
   0.2207   0.1770   0.0747
   0.2690   0.2463   0.1179
   0.3371   0.1521   0.1929
   0.2066   0.2690   0.0541
   0.2541   0.1829   0.0707
   0.3410   0.2290   0.0605
   0.2934   0.3151   0.0439
   0.2069   0.2748   0.0831
   0.2545   0.1887   0.0997
   0.3414   0.2348   0.0895
   0.2938   0.3209   0.0729
   0.5714   0.3908   0.1126
   0.4997   0.3118   0.0694
   0.5260   0.2462   0.1456
   0.5978   0.3252   0.1888
   0.5484   0.4020   0.1302
   0.4767   0.3230   0.0870
   0.5031   0.2574   0.1632
   0.5748   0.3364   0.2064
   0.8221   0.2267   0.0944
   0.6896   0.2854   0.0972
   0.7303   0.3764   0.1123
   0.8628   0.3177   0.1095
   0.8234   0.2311   0.0644
   0.6909   0.2898   0.0672
   0.7316   0.3808   0.0823
   0.8641   0.3221   0.0795
   0.8370   0.3372   0.0961
   0.7801   0.3693   0.0622
   0.7418   0.4019   0.1575
   0.7987   0.3698   0.1913
   0.8526   0.3623   0.0937
   0.7956   0.3944   0.0599
   0.7573   0.4270   0.1551
   0.8143   0.3949   0.1890
   0.9755   0.2632   0.1214
   0.9225   0.2653   0.1069
   0.9292   0.3684   0.0972
   0.9822   0.3663   0.1118
   0.9834   0.2600   0.0925
   0.9303   0.2621   0.0779
   0.9370   0.3652   0.0683
   0.9901   0.3631   0.0828
   1.0562   0.2402   0.0720
   1.1184   0.2363   0.0703
   1.1148   0.1553   0.1276
   1.0526   0.1592   0.1293
   1.0545   0.2233   0.0480
   1.1167   0.2193   0.0463
   1.1131   0.1384   0.1036
   1.0509   0.1423   0.1053
   1.3482   0.2029   0.0442
   1.4368   0.1492   0.0456
   1.4852   0.2291   0.0481
   1.3966   0.2828   0.0467
   1.3475   0.2025   0.0728
   1.4361   0.1488   0.0741
   1.4845   0.2287   0.0766
   1.3959   0.2824   0.0753
   1.5138   0.2807   0.1038
   1.5798   0.2745   0.1200
   1.5545   0.2285   0.2054
   1.4885   0.2347   0.1892
   1.5147   0.2549   0.0902
   1.5807   0.2488   0.1064
   1.5555   0.2028   0.1918
   1.4894   0.2090   0.1756
   0.1844   0.4750   0.1513
   0.2647   0.5435   0.2144
   0.2812   0.6013   0.1307
   0.2008   0.5329   0.0677
   0.1625   0.4932   0.1596
   0.2428   0.5616   0.2227
   0.2593   0.6195   0.1390
   0.1789   0.5510   0.0759
   0.3794   0.3074   0.2062
   0.4018   0.3700   0.1094
   0.3438   0.4403   0.1414
   0.3214   0.3777   0.2382
   0.4037   0.3210   0.2205
   0.4261   0.3836   0.1237
   0.3681   0.4539   0.1558
   0.3457   0.3913   0.2526
   0.5656   0.3828   0.1915
   0.6200   0.4125   0.0903
   0.5699   0.4945   0.0873
   0.5154   0.4648   0.1885
   0.5882   0.3973   0.2079
   0.6427   0.4269   0.1067
   0.5925   0.5089   0.1037
   0.5381   0.4793   0.2050
   0.8111   0.6729   0.1573
   0.9325   0.5892   0.1532
   0.8727   0.5017   0.1685
   0.7513   0.5853   0.1725
   0.8079   0.6698   0.1267
   0.9294   0.5861   0.1226
   0.8696   0.4985   0.1378
   0.7481   0.5822   0.1419
   0.7985   0.3983   0.0642
   0.7352   0.3807   0.0773
   0.7355   0.4344   0.1509
   0.7989   0.4521   0.1378
   0.7890   0.4206   0.0479
   0.7256   0.4030   0.0611
   0.7259   0.4567   0.1347
   0.7893   0.4743   0.1216
   1.0744   0.3275   0.0450
   0.9909   0.3680   0.0446
   0.9513   0.2863   0.0449
   1.0348   0.2458   0.0453
   1.0743   0.3276   0.0745
   0.9908   0.3681   0.0741
   0.9512   0.2865   0.0744
   1.0348   0.2460   0.0748
   1.2070   0.4606   0.0552
   1.1783   0.3949   0.0506
   1.1530   0.3996   0.1406
   1.1816   0.4653   0.1452
   1.1814   0.4723   0.0474
   1.1527   0.4066   0.0428
   1.1273   0.4114   0.1327
   1.1560   0.4771   0.1373
   1.3561   0.4943   0.1322
   1.2758   0.5002   0.1418
   1.2622   0.4641   0.0496
   1.3425   0.4582   0.0401
   1.3554   0.4657   0.1436
   1.2750   0.4716   0.1531
   1.2614   0.4355   0.0610
   1.3418   0.4296   0.0514
   1.6929   0.5924   0.0543
   1.6225   0.5886   0.1070
   1.6281   0.4845   0.1071
   1.6986   0.4883   0.0544
   1.7116   0.5934   0.0793
   1.6412   0.5896   0.1320
   1.6468   0.4855   0.1321
   1.7172   0.4893   0.0794
   0.0393   0.5098   0.0520
   0.0186   0.4314   0.0620
   0.0627   0.4303   0.1447
   0.0834   0.5087   0.1347
   0.0147   0.5180   0.0652
  -0.0060   0.4395   0.0752
   0.0381   0.4384   0.1579
   0.0588   0.5169   0.1479
   0.4201   0.7886   0.0592
   0.4099   0.7076   0.1559
   0.3972   0.7882   0.2220
   0.4073   0.8692   0.1253
   0.3901   0.7873   0.0549
   0.3799   0.7063   0.1517
   0.3671   0.7869   0.2178
   0.3773   0.8679   0.1211
   0.5804   0.4931   0.0703
   0.6587   0.6114   0.0818
   0.7287   0.5613   0.1195
   0.6504   0.4431   0.1080
   0.5919   0.4882   0.0424
   0.6702   0.6065   0.0539
   0.7403   0.5564   0.0915
   0.6620   0.4382   0.0800
   0.6179   0.7104   0.0923
   0.6611   0.7656   0.0406
   0.5901   0.8433   0.0643
   0.5469   0.7881   0.1160
   0.6350   0.7189   0.1156
   0.6781   0.7741   0.0639
   0.6072   0.8518   0.0876
   0.5640   0.7966   0.1393
   0.9065   0.7131   0.2017
   0.9886   0.8043   0.1677
   0.9779   0.7771   0.0691
   0.8958   0.6859   0.1031
   0.8846   0.7318   0.1990
   0.9667   0.8230   0.1649
   0.9560   0.7958   0.0663
   0.8739   0.7046   0.1003
   1.2263   0.6144   0.1407
   1.1634   0.5003   0.1658
   1.0951   0.5253   0.1080
   1.1581   0.6393   0.0828
   1.2405   0.6017   0.1185
   1.1775   0.4877   0.1437
   1.1092   0.5126   0.0858
   1.1722   0.6267   0.0607
   1.0990   0.6521   0.0568
   1.1505   0.6978   0.0570
   1.1798   0.6642   0.1488
   1.1282   0.6186   0.1486
   1.1165   0.6324   0.0440
   1.1681   0.6780   0.0442
   1.1973   0.6445   0.1360
   1.1458   0.5988   0.1358
   1.3208   0.6219   0.1394
   1.3996   0.6367   0.0989
   1.3666   0.7362   0.0711
   1.2878   0.7213   0.1116
   1.3321   0.6329   0.1654
   1.4109   0.6478   0.1249
   1.3779   0.7472   0.0971
   1.2990   0.7324   0.1376
   1.7382   0.6753   0.0541
   1.6534   0.7311   0.0755
   1.6026   0.6488   0.0881
   1.6874   0.5931   0.0667
   1.7457   0.6753   0.0839
   1.6609   0.7310   0.1054
   1.6101   0.6488   0.1180
   1.6949   0.5930   0.0965
   0.2074   0.9286   0.0946
   0.1660   0.8162   0.0957
   0.2164   0.7985   0.1849
   0.2579   0.9109   0.1838
   0.1826   0.9379   0.1104
   0.1412   0.8255   0.1115
   0.1917   0.8078   0.2008
   0.2331   0.9201   0.1996
   0.2359   0.7746   0.0444
   0.2583   0.6741   0.0467
   0.3483   0.6942   0.0475
   0.3259   0.7947   0.0452
   0.2355   0.7752   0.0731
   0.2579   0.6747   0.0755
   0.3479   0.6948   0.0762
   0.3255   0.7953   0.0739
   0.5833   0.9743   0.0826
   0.4925   0.9109   0.0589
   0.5202   0.8441   0.1316
   0.6110   0.9074   0.1552
   0.5668   0.9901   0.1034
   0.4760   0.9268   0.0797
   0.5037   0.8599   0.1524
   0.5946   0.9232   0.1761
   0.7786   0.7659   0.2045
   0.7700   0.8336   0.1096
   0.6778   0.8583   0.1355
   0.6864   0.7906   0.2304
   0.7897   0.7903   0.2209
   0.7812   0.8579   0.1259
   0.6890   0.8827   0.1518
   0.6975   0.8150   0.2468
   0.7938   0.9546   0.0719
   0.7706   0.9959   0.1197
   0.8730   1.0246   0.1447
   0.8963   0.9833   0.0969
   0.7925   0.9761   0.0527
   0.7693   1.0174   0.1005
   0.8717   1.0461   0.1254
   0.8949   1.0048   0.0777
   1.0713   1.0593   0.1910
   1.0928   1.0397   0.0730
   1.1955   1.0113   0.0964
   1.1740   1.0309   0.2143
   1.0623   1.0294   0.1943
   1.0838   1.0098   0.0763
   1.1865   0.9814   0.0997
   1.1650   1.0010   0.2176
   1.2340   0.7370   0.1136
   1.1730   0.7189   0.0571
   1.1299   0.6675   0.1201
   1.1909   0.6856   0.1766
   1.2186   0.7608   0.1225
   1.1576   0.7427   0.0661
   1.1145   0.6914   0.1291
   1.1755   0.7095   0.1855
   1.5655   0.8487   0.0768
   1.6685   0.7526   0.0817
   1.6058   0.6862   0.0975
   1.5028   0.7823   0.0925
   1.5627   0.8442   0.0469
   1.6658   0.7481   0.0519
   1.6031   0.6817   0.0676
   1.5001   0.7779   0.0626
   1.8565   0.9255   0.0818
[...]
POINT_DATA  6744
VECTORS velocity float
   0.001533  -0.006617   0.001731
   0.001533  -0.006617   0.001731
   0.001533  -0.006617   0.001731
   0.001533  -0.006617   0.001731
   0.001533  -0.006617   0.001731
   0.001533  -0.006617   0.001731
   0.001533  -0.006617   0.001731
   0.001533  -0.006617   0.001731
   0.016306   0.040174   0.010064
   0.016306   0.040174   0.010064
   0.016306   0.040174   0.010064
   0.016306   0.040174   0.010064
   0.016306   0.040174   0.010064
   0.016306   0.040174   0.010064
   0.016306   0.040174   0.010064
   0.016306   0.040174   0.010064
   0.008203   0.010908   0.027715
   0.008203   0.010908   0.027715
   0.008203   0.010908   0.027715
   0.008203   0.010908   0.027715
   0.008203   0.010908   0.027715
   0.008203   0.010908   0.027715
   0.008203   0.010908   0.027715
   0.008203   0.010908   0.027715
  -0.034077   0.269615  -0.066145
  -0.034077   0.269615  -0.066145
  -0.034077   0.269615  -0.066145
  -0.034077   0.269615  -0.066145
  -0.034077   0.269615  -0.066145
  -0.034077   0.269615  -0.066145
  -0.034077   0.269615  -0.066145
  -0.034077   0.269615  -0.066145
  -0.085247  -0.103254  -0.253747
  -0.085247  -0.103254  -0.253747
  -0.085247  -0.103254  -0.253747
  -0.085247  -0.103254  -0.253747
  -0.085247  -0.103254  -0.253747
  -0.085247  -0.103254  -0.253747
  -0.085247  -0.103254  -0.253747
  -0.085247  -0.103254  -0.253747
   0.006138  -0.011848   0.028683
   0.006138  -0.011848   0.028683
   0.006138  -0.011848   0.028683
   0.006138  -0.011848   0.028683
   0.006138  -0.011848   0.028683
   0.006138  -0.011848   0.028683
   0.006138  -0.011848   0.028683
   0.006138  -0.011848   0.028683
   0.033087   0.021798  -0.042973
   0.033087   0.021798  -0.042973
   0.033087   0.021798  -0.042973
   0.033087   0.021798  -0.042973
   0.033087   0.021798  -0.042973
   0.033087   0.021798  -0.042973
   0.033087   0.021798  -0.042973
   0.033087   0.021798  -0.042973
  -0.008017   0.029016  -0.097070
  -0.008017   0.029016  -0.097070
  -0.008017   0.029016  -0.097070
  -0.008017   0.029016  -0.097070
  -0.008017   0.029016  -0.097070
  -0.008017   0.029016  -0.097070
  -0.008017   0.029016  -0.097070
  -0.008017   0.029016  -0.097070
   0.002715  -0.136515   0.031072
   0.002715  -0.136515   0.031072
   0.002715  -0.136515   0.031072
   0.002715  -0.136515   0.031072
   0.002715  -0.136515   0.031072
   0.002715  -0.136515   0.031072
   0.002715  -0.136515   0.031072
   0.002715  -0.136515   0.031072
   0.077792  -0.052114  -0.524365
   0.077792  -0.052114  -0.524365
   0.077792  -0.052114  -0.524365
   0.077792  -0.052114  -0.524365
   0.077792  -0.052114  -0.524365
   0.077792  -0.052114  -0.524365
   0.077792  -0.052114  -0.524365
   0.077792  -0.052114  -0.524365
   0.044781  -0.082016  -0.048431
   0.044781  -0.082016  -0.048431
   0.044781  -0.082016  -0.048431
   0.044781  -0.082016  -0.048431
   0.044781  -0.082016  -0.048431
   0.044781  -0.082016  -0.048431
   0.044781  -0.082016  -0.048431
   0.044781  -0.082016  -0.048431
   0.041044   0.004333  -0.515608
   0.041044   0.004333  -0.515608
   0.041044   0.004333  -0.515608
   0.041044   0.004333  -0.515608
   0.041044   0.004333  -0.515608
   0.041044   0.004333  -0.515608
   0.041044   0.004333  -0.515608
   0.041044   0.004333  -0.515608
  -0.124121   0.161171  -0.122002
  -0.124121   0.161171  -0.122002
  -0.124121   0.161171  -0.122002
  -0.124121   0.161171  -0.122002
  -0.124121   0.161171  -0.122002
  -0.124121   0.161171  -0.122002
  -0.124121   0.161171  -0.122002
  -0.124121   0.161171  -0.122002
  -0.017640   0.230600  -0.183725
  -0.017640   0.230600  -0.183725
  -0.017640   0.230600  -0.183725
  -0.017640   0.230600  -0.183725
  -0.017640   0.230600  -0.183725
  -0.017640   0.230600  -0.183725
  -0.017640   0.230600  -0.183725
  -0.017640   0.230600  -0.183725
  -0.049844   0.038548   0.015936
  -0.049844   0.038548   0.015936
  -0.049844   0.038548   0.015936
  -0.049844   0.038548   0.015936
  -0.049844   0.038548   0.015936
  -0.049844   0.038548   0.015936
  -0.049844   0.038548   0.015936
  -0.049844   0.038548   0.015936
   0.004783  -0.266251  -0.182757
   0.004783  -0.266251  -0.182757
   0.004783  -0.266251  -0.182757
   0.004783  -0.266251  -0.182757
   0.004783  -0.266251  -0.182757
   0.004783  -0.266251  -0.182757
   0.004783  -0.266251  -0.182757
   0.004783  -0.266251  -0.182757
  -0.024663   0.001090   0.086664
  -0.024663   0.001090   0.086664
  -0.024663   0.001090   0.086664
  -0.024663   0.001090   0.086664
  -0.024663   0.001090   0.086664
  -0.024663   0.001090   0.086664
  -0.024663   0.001090   0.086664
  -0.024663   0.001090   0.086664
   0.069348  -0.102669  -0.114456
   0.069348  -0.102669  -0.114456
   0.069348  -0.102669  -0.114456
   0.069348  -0.102669  -0.114456
   0.069348  -0.102669  -0.114456
   0.069348  -0.102669  -0.114456
   0.069348  -0.102669  -0.114456
   0.069348  -0.102669  -0.114456
   0.065418   0.122748  -0.326355
   0.065418   0.122748  -0.326355
   0.065418   0.122748  -0.326355
   0.065418   0.122748  -0.326355
   0.065418   0.122748  -0.326355
   0.065418   0.122748  -0.326355
   0.065418   0.122748  -0.326355
   0.065418   0.122748  -0.326355
   0.064843  -0.063014  -0.493664
   0.064843  -0.063014  -0.493664
   0.064843  -0.063014  -0.493664
   0.064843  -0.063014  -0.493664
   0.064843  -0.063014  -0.493664
   0.064843  -0.063014  -0.493664
   0.064843  -0.063014  -0.493664
   0.064843  -0.063014  -0.493664
   0.078952   0.010969  -0.517469
   0.078952   0.010969  -0.517469
   0.078952   0.010969  -0.517469
   0.078952   0.010969  -0.517469
   0.078952   0.010969  -0.517469
   0.078952   0.010969  -0.517469
   0.078952   0.010969  -0.517469
   0.078952   0.010969  -0.517469
   0.031103  -0.060022  -0.428503
   0.031103  -0.060022  -0.428503
   0.031103  -0.060022  -0.428503
   0.031103  -0.060022  -0.428503
   0.031103  -0.060022  -0.428503
   0.031103  -0.060022  -0.428503
   0.031103  -0.060022  -0.428503
   0.031103  -0.060022  -0.428503
   0.037156   0.089332  -0.175813
   0.037156   0.089332  -0.175813
   0.037156   0.089332  -0.175813
   0.037156   0.089332  -0.175813
   0.037156   0.089332  -0.175813
   0.037156   0.089332  -0.175813
   0.037156   0.089332  -0.175813
   0.037156   0.089332  -0.175813
  -0.010109   0.010714  -0.006578
  -0.010109   0.010714  -0.006578
  -0.010109   0.010714  -0.006578
  -0.010109   0.010714  -0.006578
  -0.010109   0.010714  -0.006578
  -0.010109   0.010714  -0.006578
  -0.010109   0.010714  -0.006578
  -0.010109   0.010714  -0.006578
   0.069278   0.140038  -0.443937
   0.069278   0.140038  -0.443937
   0.069278   0.140038  -0.443937
   0.069278   0.140038  -0.443937
   0.069278   0.140038  -0.443937
   0.069278   0.140038  -0.443937
   0.069278   0.140038  -0.443937
   0.069278   0.140038  -0.443937
  -0.211517   0.036555   0.031425
  -0.211517   0.036555   0.031425
  -0.211517   0.036555   0.031425
  -0.211517   0.036555   0.031425
  -0.211517   0.036555   0.031425
  -0.211517   0.036555   0.031425
  -0.211517   0.036555   0.031425
  -0.211517   0.036555   0.031425
  -0.147813   0.344109   0.096869
  -0.147813   0.344109   0.096869
  -0.147813   0.344109   0.096869
  -0.147813   0.344109   0.096869
  -0.147813   0.344109   0.096869
  -0.147813   0.344109   0.096869
  -0.147813   0.344109   0.096869
  -0.147813   0.344109   0.096869
  -0.006358  -0.207575  -0.210805
  -0.006358  -0.207575  -0.210805
  -0.006358  -0.207575  -0.210805
  -0.006358  -0.207575  -0.210805
  -0.006358  -0.207575  -0.210805
  -0.006358  -0.207575  -0.210805
  -0.006358  -0.207575  -0.210805
  -0.006358  -0.207575  -0.210805
  -0.036480   0.107157  -0.077299
  -0.036480   0.107157  -0.077299
  -0.036480   0.107157  -0.077299
  -0.036480   0.107157  -0.077299
  -0.036480   0.107157  -0.077299
  -0.036480   0.107157  -0.077299
  -0.036480   0.107157  -0.077299
  -0.036480   0.107157  -0.077299
   0.323314   0.042807  -0.144190
   0.323314   0.042807  -0.144190
   0.323314   0.042807  -0.144190
   0.323314   0.042807  -0.144190
   0.323314   0.042807  -0.144190
   0.323314   0.042807  -0.144190
   0.323314   0.042807  -0.144190
   0.323314   0.042807  -0.144190
  -0.078461  -0.057822  -0.162391
  -0.078461  -0.057822  -0.162391
  -0.078461  -0.057822  -0.162391
  -0.078461  -0.057822  -0.162391
  -0.078461  -0.057822  -0.162391
  -0.078461  -0.057822  -0.162391
  -0.078461  -0.057822  -0.162391
  -0.078461  -0.057822  -0.162391
   0.104817   0.217369  -0.341602
   0.104817   0.217369  -0.341602
   0.104817   0.217369  -0.341602
   0.104817   0.217369  -0.341602
   0.104817   0.217369  -0.341602
   0.104817   0.217369  -0.341602
   0.104817   0.217369  -0.341602
   0.104817   0.217369  -0.341602
   0.084263  -0.059298  -0.109532
   0.084263  -0.059298  -0.109532
   0.084263  -0.059298  -0.109532
   0.084263  -0.059298  -0.109532
   0.084263  -0.059298  -0.109532
   0.084263  -0.059298  -0.109532
   0.084263  -0.059298  -0.109532
   0.084263  -0.059298  -0.109532
  -0.015543  -0.042078   0.048481
  -0.015543  -0.042078   0.048481
  -0.015543  -0.042078   0.048481
  -0.015543  -0.042078   0.048481
  -0.015543  -0.042078   0.048481
  -0.015543  -0.042078   0.048481
  -0.015543  -0.042078   0.048481
  -0.015543  -0.042078   0.048481
  -0.111360  -0.255241   0.009070
  -0.111360  -0.255241   0.009070
  -0.111360  -0.255241   0.009070
  -0.111360  -0.255241   0.009070
  -0.111360  -0.255241   0.009070
  -0.111360  -0.255241   0.009070
  -0.111360  -0.255241   0.009070
  -0.111360  -0.255241   0.009070
   0.229295  -0.190712  -0.437890
   0.229295  -0.190712  -0.437890
   0.229295  -0.190712  -0.437890
   0.229295  -0.190712  -0.437890
   0.229295  -0.190712  -0.437890
   0.229295  -0.190712  -0.437890
   0.229295  -0.190712  -0.437890
   0.229295  -0.190712  -0.437890
   0.098716  -0.022383   0.130483
   0.098716  -0.022383   0.130483
   0.098716  -0.022383   0.130483
   0.098716  -0.022383   0.130483
   0.098716  -0.022383   0.130483
   0.098716  -0.022383   0.130483
   0.098716  -0.022383   0.130483
   0.098716  -0.022383   0.130483
   0.004731  -0.005586  -0.028974
   0.004731  -0.005586  -0.028974
   0.004731  -0.005586  -0.028974
   0.004731  -0.005586  -0.028974
   0.004731  -0.005586  -0.028974
   0.004731  -0.005586  -0.028974
   0.004731  -0.005586  -0.028974
   0.004731  -0.005586  -0.028974
   0.049574   0.048006  -0.520923
   0.049574   0.048006  -0.520923
   0.049574   0.048006  -0.520923
   0.049574   0.048006  -0.520923
   0.049574   0.048006  -0.520923
   0.049574   0.048006  -0.520923
   0.049574   0.048006  -0.520923
   0.049574   0.048006  -0.520923
  -0.008297   0.016020  -0.541137
  -0.008297   0.016020  -0.541137
  -0.008297   0.016020  -0.541137
  -0.008297   0.016020  -0.541137
  -0.008297   0.016020  -0.541137
  -0.008297   0.016020  -0.541137
  -0.008297   0.016020  -0.541137
  -0.008297   0.016020  -0.541137
   0.225192   0.053488  -0.041685
   0.225192   0.053488  -0.041685
   0.225192   0.053488  -0.041685
   0.225192   0.053488  -0.041685
   0.225192   0.053488  -0.041685
   0.225192   0.053488  -0.041685
   0.225192   0.053488  -0.041685
   0.225192   0.053488  -0.041685
   0.055140   0.076469  -0.533654
   0.055140   0.076469  -0.533654
   0.055140   0.076469  -0.533654
   0.055140   0.076469  -0.533654
   0.055140   0.076469  -0.533654
   0.055140   0.076469  -0.533654
   0.055140   0.076469  -0.533654
   0.055140   0.076469  -0.533654
   0.005362  -0.025548   0.086657
   0.005362  -0.025548   0.086657
   0.005362  -0.025548   0.086657
   0.005362  -0.025548   0.086657
   0.005362  -0.025548   0.086657
   0.005362  -0.025548   0.086657
   0.005362  -0.025548   0.086657
   0.005362  -0.025548   0.086657
  -0.025501   0.008390   0.191171
  -0.025501   0.008390   0.191171
  -0.025501   0.008390   0.191171
  -0.025501   0.008390   0.191171
  -0.025501   0.008390   0.191171
  -0.025501   0.008390   0.191171
  -0.025501   0.008390   0.191171
  -0.025501   0.008390   0.191171
  -0.336758  -0.132585   0.031797
  -0.336758  -0.132585   0.031797
  -0.336758  -0.132585   0.031797
  -0.336758  -0.132585   0.031797
  -0.336758  -0.132585   0.031797
  -0.336758  -0.132585   0.031797
  -0.336758  -0.132585   0.031797
  -0.336758  -0.132585   0.031797
   0.192125   0.289634  -0.001237
   0.192125   0.289634  -0.001237
   0.192125   0.289634  -0.001237
   0.192125   0.289634  -0.001237
   0.192125   0.289634  -0.001237
   0.192125   0.289634  -0.001237
   0.192125   0.289634  -0.001237
   0.192125   0.289634  -0.001237
  -0.002612  -0.009960  -0.002423
  -0.002612  -0.009960  -0.002423
  -0.002612  -0.009960  -0.002423
  -0.002612  -0.009960  -0.002423
  -0.002612  -0.009960  -0.002423
  -0.002612  -0.009960  -0.002423
  -0.002612  -0.009960  -0.002423
  -0.002612  -0.009960  -0.002423
   0.141501   0.097031  -0.326291
   0.141501   0.097031  -0.326291
   0.141501   0.097031  -0.326291
   0.141501   0.097031  -0.326291
   0.141501   0.097031  -0.326291
   0.141501   0.097031  -0.326291
   0.141501   0.097031  -0.326291
   0.141501   0.097031  -0.326291
  -0.038081   0.011857   0.086303
  -0.038081   0.011857   0.086303
  -0.038081   0.011857   0.086303
  -0.038081   0.011857   0.086303
  -0.038081   0.011857   0.086303
  -0.038081   0.011857   0.086303
  -0.038081   0.011857   0.086303
  -0.038081   0.011857   0.086303
   0.107163   0.035026  -0.515402
   0.107163   0.035026  -0.515402
   0.107163   0.035026  -0.515402
   0.107163   0.035026  -0.515402
   0.107163   0.035026  -0.515402
   0.107163   0.035026  -0.515402
   0.107163   0.035026  -0.515402
   0.107163   0.035026  -0.515402
  -0.158035   0.113936  -0.151349
  -0.158035   0.113936  -0.151349
  -0.158035   0.113936  -0.151349
  -0.158035   0.113936  -0.151349
  -0.158035   0.113936  -0.151349
  -0.158035   0.113936  -0.151349
  -0.158035   0.113936  -0.151349
  -0.158035   0.113936  -0.151349
  -0.067899   0.048936  -0.075357
  -0.067899   0.048936  -0.075357
  -0.067899   0.048936  -0.075357
  -0.067899   0.048936  -0.075357
  -0.067899   0.048936  -0.075357
  -0.067899   0.048936  -0.075357
  -0.067899   0.048936  -0.075357
  -0.067899   0.048936  -0.075357
  -0.215877  -0.028354  -0.237435
  -0.215877  -0.028354  -0.237435
  -0.215877  -0.028354  -0.237435
  -0.215877  -0.028354  -0.237435
  -0.215877  -0.028354  -0.237435
  -0.215877  -0.028354  -0.237435
  -0.215877  -0.028354  -0.237435
  -0.215877  -0.028354  -0.237435
  -0.170616   0.088756  -0.263953
  -0.170616   0.088756  -0.263953
  -0.170616   0.088756  -0.263953
  -0.170616   0.088756  -0.263953
  -0.170616   0.088756  -0.263953
  -0.170616   0.088756  -0.263953
  -0.170616   0.088756  -0.263953
  -0.170616   0.088756  -0.263953
   0.074230  -0.086639   0.142719
   0.074230  -0.086639   0.142719
   0.074230  -0.086639   0.142719
   0.074230  -0.086639   0.142719
   0.074230  -0.086639   0.142719
   0.074230  -0.086639   0.142719
   0.074230  -0.086639   0.142719
   0.074230  -0.086639   0.142719
   0.065033   0.092856  -0.044616
   0.065033   0.092856  -0.044616
   0.065033   0.092856  -0.044616
   0.065033   0.092856  -0.044616
   0.065033   0.092856  -0.044616
   0.065033   0.092856  -0.044616
   0.065033   0.092856  -0.044616
   0.065033   0.092856  -0.044616
   0.138129  -0.189087   0.059587
   0.138129  -0.189087   0.059587
   0.138129  -0.189087   0.059587
   0.138129  -0.189087   0.059587
   0.138129  -0.189087   0.059587
   0.138129  -0.189087   0.059587
   0.138129  -0.189087   0.059587
   0.138129  -0.189087   0.059587
   0.106107   0.116385  -0.226248
   0.106107   0.116385  -0.226248
   0.106107   0.116385  -0.226248
   0.106107   0.116385  -0.226248
   0.106107   0.116385  -0.226248
   0.106107   0.116385  -0.226248
   0.106107   0.116385  -0.226248
   0.106107   0.116385  -0.226248
   0.060592  -0.035868  -0.504455
   0.060592  -0.035868  -0.504455
   0.060592  -0.035868  -0.504455
   0.060592  -0.035868  -0.504455
   0.060592  -0.035868  -0.504455
   0.060592  -0.035868  -0.504455
   0.060592  -0.035868  -0.504455
   0.060592  -0.035868  -0.504455
   0.070495   0.098261  -0.378372
   0.070495   0.098261  -0.378372
   0.070495   0.098261  -0.378372
   0.070495   0.098261  -0.378372
   0.070495   0.098261  -0.378372
   0.070495   0.098261  -0.378372
   0.070495   0.098261  -0.378372
   0.070495   0.098261  -0.378372
   0.020838   0.108278  -0.223289
   0.020838   0.108278  -0.223289
   0.020838   0.108278  -0.223289
   0.020838   0.108278  -0.223289
   0.020838   0.108278  -0.223289
   0.020838   0.108278  -0.223289
   0.020838   0.108278  -0.223289
   0.020838   0.108278  -0.223289
  -0.001126  -0.000238  -0.003825
  -0.001126  -0.000238  -0.003825
  -0.001126  -0.000238  -0.003825
  -0.001126  -0.000238  -0.003825
  -0.001126  -0.000238  -0.003825
  -0.001126  -0.000238  -0.003825
  -0.001126  -0.000238  -0.003825
  -0.001126  -0.000238  -0.003825
  -0.060547   0.034168  -0.501403
  -0.060547   0.034168  -0.501403
  -0.060547   0.034168  -0.501403
  -0.060547   0.034168  -0.501403
  -0.060547   0.034168  -0.501403
  -0.060547   0.034168  -0.501403
  -0.060547   0.034168  -0.501403
  -0.060547   0.034168  -0.501403
  -0.093625   0.023612   0.204243
  -0.093625   0.023612   0.204243
  -0.093625   0.023612   0.204243
  -0.093625   0.023612   0.204243
  -0.093625   0.023612   0.204243
  -0.093625   0.023612   0.204243
  -0.093625   0.023612   0.204243
  -0.093625   0.023612   0.204243
   0.035356   0.024140  -0.515305
   0.035356   0.024140  -0.515305
   0.035356   0.024140  -0.515305
   0.035356   0.024140  -0.515305
   0.035356   0.024140  -0.515305
   0.035356   0.024140  -0.515305
   0.035356   0.024140  -0.515305
   0.035356   0.024140  -0.515305
   0.046040   0.033736  -0.552683
   0.046040   0.033736  -0.552683
   0.046040   0.033736  -0.552683
   0.046040   0.033736  -0.552683
   0.046040   0.033736  -0.552683
   0.046040   0.033736  -0.552683
   0.046040   0.033736  -0.552683
   0.046040   0.033736  -0.552683
   0.056184   0.127258  -0.193730
   0.056184   0.127258  -0.193730
   0.056184   0.127258  -0.193730
   0.056184   0.127258  -0.193730
   0.056184   0.127258  -0.193730
   0.056184   0.127258  -0.193730
   0.056184   0.127258  -0.193730
   0.056184   0.127258  -0.193730
   0.097271   0.031399  -0.536854
   0.097271   0.031399  -0.536854
   0.097271   0.031399  -0.536854
   0.097271   0.031399  -0.536854
   0.097271   0.031399  -0.536854
   0.097271   0.031399  -0.536854
   0.097271   0.031399  -0.536854
   0.097271   0.031399  -0.536854
   0.006745   0.000870  -0.529533
   0.006745   0.000870  -0.529533
   0.006745   0.000870  -0.529533
   0.006745   0.000870  -0.529533
   0.006745   0.000870  -0.529533
   0.006745   0.000870  -0.529533
   0.006745   0.000870  -0.529533
   0.006745   0.000870  -0.529533
  -0.014381   0.057498  -0.521009
  -0.014381   0.057498  -0.521009
  -0.014381   0.057498  -0.521009
  -0.014381   0.057498  -0.521009
  -0.014381   0.057498  -0.521009
  -0.014381   0.057498  -0.521009
  -0.014381   0.057498  -0.521009
  -0.014381   0.057498  -0.521009
  -0.032796  -0.003298  -0.533217
  -0.032796  -0.003298  -0.533217
  -0.032796  -0.003298  -0.533217
  -0.032796  -0.003298  -0.533217
  -0.032796  -0.003298  -0.533217
  -0.032796  -0.003298  -0.533217
  -0.032796  -0.003298  -0.533217
  -0.032796  -0.003298  -0.533217
   0.031677   0.066618  -0.556973
   0.031677   0.066618  -0.556973
   0.031677   0.066618  -0.556973
   0.031677   0.066618  -0.556973
   0.031677   0.066618  -0.556973
   0.031677   0.066618  -0.556973
   0.031677   0.066618  -0.556973
   0.031677   0.066618  -0.556973
   0.023210  -0.029821  -0.534705
   0.023210  -0.029821  -0.534705
   0.023210  -0.029821  -0.534705
   0.023210  -0.029821  -0.534705
   0.023210  -0.029821  -0.534705
   0.023210  -0.029821  -0.534705
   0.023210  -0.029821  -0.534705
   0.023210  -0.029821  -0.534705
   0.166252  -0.014721   0.018484
   0.166252  -0.014721   0.018484
   0.166252  -0.014721   0.018484