# vtk DataFile Version 2.0
Startpositionen
ASCII
DATASET POLYDATA
 POINTS         6744  float

   0.1305   0.2400   0.2339
   0.0359   0.1987   0.1968
   0.0908   0.1184   0.1463
   0.1853   0.1597   0.1834
   0.1283   0.2236   0.2576
   0.0337   0.1823   0.2206
   0.0886   0.1020   0.1700
   0.1832   0.1433   0.2071
   0.2618   0.1870   0.2892
   0.2617   0.1348   0.2799
   0.1529   0.1361   0.2735
   0.1530   0.1882   0.2828
   0.2636   0.1923   0.2596
   0.2635   0.1401   0.2502
   0.1547   0.1414   0.2438
   0.1548   0.1935   0.2532
   0.4065   0.0749   0.2167
   0.4928   0.0170   0.2297
   0.5489   0.0947   0.2033
   0.4626   0.1526   0.1903
   0.4080   0.0834   0.2449
   0.4943   0.0255   0.2579
   0.5504   0.1032   0.2315
   0.4641   0.1611   0.2185
   0.5982   0.1713   0.1362
   0.6005   0.1960   0.2061
   0.6071   0.0970   0.2409
   0.6049   0.0723   0.1710
   0.6268   0.1727   0.1348
   0.6291   0.1974   0.2047
   0.6357   0.0984   0.2395
   0.6335   0.0737   0.1695
   0.7474   0.0886   0.3083
   0.7684   0.1267   0.2617
   0.8385   0.0627   0.2412
   0.8174   0.0247   0.2878
   0.7290   0.0748   0.2888
   0.7501   0.1129   0.2422
   0.8202   0.0489   0.2216
   0.7991   0.0109   0.2683
   1.1874   0.1024   0.2214
   1.0593   0.0305   0.2456
   1.0116   0.1107   0.2312
   1.1397   0.1825   0.2070
   1.1855   0.0962   0.1931
   1.0574   0.0243   0.2173
   1.0098   0.1045   0.2029
   1.1378   0.1763   0.1787
   1.1734   0.0099   0.1795
   1.1307   0.0226   0.2294
   1.1932   0.0759   0.2693
   1.2359   0.0632   0.2194
   1.1633   0.0326   0.1651
   1.1206   0.0452   0.2149
   1.1830   0.0986   0.2548
   1.2257   0.0859   0.2049
   1.3365   0.1241   0.2202
   1.3697   0.0739   0.1691
   1.4287   0.0412   0.2396
   1.3955   0.0914   0.2907
   1.3165   0.1035   0.2274
   1.3497   0.0534   0.1763
   1.4086   0.0206   0.2468
   1.3754   0.0708   0.2979
   1.5540   0.1084   0.2199
   1.6378   0.0613   0.2686
   1.6832   0.1544   0.2805
   1.5994   0.2015   0.2319
   1.5404   0.1116   0.2466
   1.6242   0.0646   0.2952
   1.6695   0.1577   0.3072
   1.5857   0.2047   0.2585
   0.1559   0.1565   0.3425
   0.0873   0.2570   0.2767
   0.1398   0.3221   0.3215
   0.2084   0.2216   0.3872
   0.1767   0.1556   0.3193
   0.1081   0.2561   0.2536
   0.1606   0.3212   0.2984
   0.2292   0.2207   0.3641
   0.2141   0.2915   0.2166
   0.2626   0.2043   0.2157
   0.3490   0.2523   0.2168
   0.3006   0.3395   0.2178
   0.2140   0.2911   0.2462
   0.2624   0.2039   0.2452
   0.3489   0.2519   0.2464
   0.3004   0.3391   0.2473
   0.5267   0.3867   0.2958
   0.4605   0.3063   0.2469
   0.4905   0.2377   0.3189
   0.5567   0.3182   0.3679
   0.5029   0.3953   0.3139
   0.4367   0.3148   0.2649
   0.4668   0.2463   0.3370
   0.5330   0.3267   0.3859
   0.7624   0.2044   0.2625
   0.6485   0.2867   0.2979
   0.7103   0.3639   0.3175
   0.8243   0.2816   0.2821
   0.7601   0.2136   0.2337
   0.6462   0.2959   0.2691
   0.7080   0.3730   0.2887
   0.8219   0.2908   0.2533
   0.8411   0.2914   0.2244
   0.7974   0.3222   0.1737
   0.7447   0.3751   0.2514
   0.7884   0.3443   0.3020
   0.8600   0.3141   0.2218
   0.8163   0.3449   0.1711
   0.7637   0.3978   0.2488
   0.8074   0.3670   0.2994
   0.9807   0.2641   0.2959
   0.9281   0.2630   0.2800
   0.9295   0.3662   0.2682
   0.9822   0.3672   0.2841
   0.9895   0.2607   0.2672
   0.9368   0.2596   0.2513
   0.9382   0.3627   0.2395
   0.9909   0.3638   0.2554
   1.1216   0.3210   0.2117
   1.1819   0.3231   0.1960
   1.2014   0.2507   0.2611
   1.1410   0.2486   0.2768
   1.1168   0.3009   0.1908
   1.1771   0.3030   0.1751
   1.1966   0.2306   0.2401
   1.1363   0.2285   0.2558
   1.3442   0.2284   0.1836
   1.4207   0.1623   0.1611
   1.4810   0.2335   0.1565
   1.4045   0.2997   0.1791
   1.3498   0.2254   0.2115
   1.4263   0.1593   0.1889
   1.4866   0.2305   0.1844
   1.4102   0.2967   0.2070
   1.5249   0.3193   0.1621
   1.5906   0.3150   0.1801
   1.5638   0.2741   0.2676
   1.4981   0.2784   0.2495
   1.5264   0.2928   0.1501
   1.5921   0.2885   0.1682
   1.5654   0.2476   0.2556
   1.4997   0.2519   0.2376
   0.1002   0.4231   0.2283
   0.1610   0.4913   0.3106
   0.1929   0.5538   0.2351
   0.1321   0.4856   0.1529
   0.0761   0.4399   0.2321
   0.1369   0.5081   0.3144
   0.1689   0.5706   0.2389
   0.1081   0.5024   0.1567
   0.3178   0.3673   0.3582
   0.3402   0.4299   0.2614
   0.2821   0.5002   0.2934
   0.2598   0.4376   0.3902
   0.3421   0.3809   0.3725
   0.3645   0.4435   0.2758
   0.3065   0.5138   0.3078
   0.2841   0.4512   0.4046
   0.4838   0.3843   0.3870
   0.5324   0.3924   0.2790
   0.4936   0.4797   0.2682
   0.4450   0.4716   0.3762
   0.5096   0.3973   0.3996
   0.5582   0.4054   0.2916
   0.5194   0.4927   0.2807
   0.4708   0.4846   0.3888
   0.7001   0.6128   0.3207
   0.8277   0.5394   0.3123
   0.7756   0.4470   0.3275
   0.6479   0.5205   0.3359
   0.6964   0.6099   0.2902
   0.8241   0.5364   0.2818
   0.7719   0.4441   0.2969
   0.6442   0.5176   0.3053
   0.8296   0.3730   0.1798
   0.7649   0.3584   0.1897
   0.7658   0.4072   0.2667
   0.8305   0.4218   0.2567
   0.8219   0.3968   0.1648
   0.7572   0.3822   0.1747
   0.7581   0.4310   0.2517
   0.8228   0.4456   0.2417
   1.0820   0.4145   0.2118
   0.9950   0.4388   0.1905
   0.9648   0.3600   0.2240
   1.0519   0.3357   0.2453
   1.0790   0.4270   0.2383
   0.9920   0.4512   0.2171
   0.9618   0.3724   0.2506
   1.0489   0.3482   0.2719
   1.2134   0.4426   0.1785
   1.1833   0.3775   0.1737
   1.1638   0.3798   0.2652
   1.1939   0.4448   0.2701
   1.1875   0.4550   0.1728
   1.1574   0.3900   0.1679
   1.1380   0.3922   0.2595
   1.1681   0.4572   0.2643
   1.4204   0.4991   0.3414
   1.3397   0.5041   0.3466
   1.3314   0.4671   0.2542
   1.4122   0.4621   0.2490
   1.4194   0.4706   0.3529
   1.3386   0.4756   0.3581
   1.3304   0.4386   0.2657
   1.4111   0.4336   0.2605
   1.5935   0.5690   0.3068
   1.5275   0.5430   0.3590
   1.5411   0.4447   0.3273
   1.6071   0.4706   0.2751
   1.6138   0.5643   0.3301
   1.5478   0.5383   0.3823
   1.5614   0.4399   0.3506
   1.6274   0.4659   0.2984
   0.0625   0.6307   0.1486
   0.0440   0.5555   0.1747
   0.0899   0.5720   0.2547
   0.1084   0.6472   0.2286
   0.0381   0.6409   0.1605
   0.0195   0.5657   0.1866
   0.0654   0.5822   0.2667
   0.0839   0.6574   0.2406
   0.3520   0.7070   0.1975
   0.3441   0.6210   0.2901
   0.3358   0.6981   0.3610
   0.3437   0.7841   0.2684
   0.3218   0.7066   0.1945
   0.3139   0.6206   0.2870
   0.3056   0.6976   0.3579
   0.3135   0.7836   0.2654
   0.4624   0.5750   0.2752
   0.5381   0.6940   0.2937
   0.6060   0.6444   0.3357
   0.5303   0.5253   0.3172
   0.4760   0.5706   0.2481
   0.5516   0.6896   0.2666
   0.6195   0.6400   0.3086
   0.5438   0.5209   0.2901
   0.6398   0.6604   0.2912
   0.6905   0.6951   0.2294
   0.6178   0.7732   0.2136
   0.5671   0.7385   0.2754
   0.6535   0.6774   0.3119
   0.7042   0.7121   0.2501
   0.6315   0.7902   0.2344
   0.5808   0.7554   0.2962
   0.8851   0.6700   0.2791
   0.9534   0.7369   0.1950
   0.9198   0.6759   0.1192
   0.8515   0.6090   0.2034
   0.8626   0.6877   0.2749
   0.9309   0.7546   0.1907
   0.8973   0.6935   0.1150
   0.8290   0.6267   0.1991
   1.1335   0.6380   0.2695
   1.0454   0.5403   0.2519
   1.0203   0.5775   0.1706
   1.1084   0.6752   0.1882
   1.1538   0.6221   0.2559
   1.0658   0.5244   0.2383
   1.0407   0.5616   0.1570
   1.1288   0.6593   0.1746
   1.1167   0.6723   0.1860
   1.1675   0.7172   0.1736
   1.2056   0.6996   0.2666
   1.1548   0.6548   0.2790
   1.1332   0.6506   0.1751
   1.1840   0.6955   0.1627
   1.2221   0.6779   0.2557
   1.1713   0.6331   0.2681
   1.3640   0.6553   0.3187
   1.4456   0.6589   0.2811
   1.4138   0.7427   0.2201
   1.3323   0.7392   0.2577
   1.3732   0.6746   0.3404
   1.4547   0.6781   0.3028
   1.4230   0.7619   0.2418
   1.3414   0.7584   0.2794
   1.6710   0.6201   0.2816
   1.6096   0.7037   0.2780
   1.5327   0.6482   0.3005
   1.5940   0.5646   0.3040
   1.6761   0.6252   0.3115
   1.6147   0.7087   0.3080
   1.5378   0.6532   0.3304
   1.5992   0.5697   0.3340
   0.1476   0.9246   0.2236
   0.1044   0.8130   0.2270
   0.1388   0.8026   0.3246
   0.1820   0.9142   0.3212
   0.1207   0.9353   0.2342
   0.0775   0.8237   0.2376
   0.1120   0.8133   0.3352
   0.1552   0.9249   0.3318
   0.2302   0.8259   0.1897
   0.2501   0.7262   0.1725
   0.3399   0.7455   0.1642
   0.3200   0.8452   0.1813
   0.2337   0.8217   0.2179
   0.2536   0.7220   0.2007
   0.3434   0.7414   0.1924
   0.3235   0.8410   0.2096
   0.5337   0.9262   0.2749
   0.4428   0.8629   0.2512
   0.4706   0.7960   0.3239
   0.5614   0.8594   0.3475
   0.5172   0.9420   0.2957
   0.4264   0.8787   0.2720
   0.4541   0.8119   0.3447
   0.5449   0.8752   0.3684
   0.7351   0.7824   0.3670
   0.7246   0.8442   0.2683
   0.6305   0.8644   0.2910
   0.6410   0.8025   0.3896
   0.7443   0.8082   0.3822
   0.7338   0.8701   0.2835
   0.6397   0.8903   0.3062
   0.6502   0.8284   0.4049
   0.7708   0.8801   0.1524
   0.7301   0.9125   0.1951
   0.8143   0.9296   0.2626
   0.8551   0.8972   0.2199
   0.7766   0.9050   0.1390
   0.7358   0.9374   0.1817
   0.8200   0.9545   0.2492
   0.8608   0.9221   0.2065
   1.0102   0.9641   0.3717
   1.0345   0.9300   0.2577
   1.1369   0.9059   0.2868
   1.1125   0.9401   0.4008
   1.0013   0.9348   0.3786
   1.0257   0.9007   0.2646
   1.1280   0.8766   0.2936
   1.1037   0.9108   0.4077
   1.2579   0.7975   0.2457
   1.1978   0.8078   0.1863
   1.1491   0.7393   0.2236
   1.2092   0.7289   0.2830
   1.2439   0.8170   0.2632
   1.1838   0.8274   0.2039
   1.1351   0.7588   0.2412
   1.1952   0.7485   0.3006
   1.4326   0.8717   0.2615
   1.5568   0.8190   0.3025
   1.5165   0.7374   0.3196
   1.3923   0.7901   0.2786
   1.4383   0.8630   0.2330
   1.5625   0.8103   0.2740
   1.5222   0.7286   0.2911
   1.3980   0.7814   0.2501
   1.7502   0.8849   0.2603
[...]
POINT_DATA  6744
VECTORS velocity float
   0.061955   0.306651  -0.444894
   0.061955   0.306651  -0.444894
   0.061955   0.306651  -0.444894
   0.061955   0.306651  -0.444894
   0.061955   0.306651  -0.444894
   0.061955   0.306651  -0.444894
   0.061955   0.306651  -0.444894
   0.061955   0.306651  -0.444894
  -0.292182   0.278294  -0.188340
  -0.292182   0.278294  -0.188340
  -0.292182   0.278294  -0.188340
  -0.292182   0.278294  -0.188340
  -0.292182   0.278294  -0.188340
  -0.292182   0.278294  -0.188340
  -0.292182   0.278294  -0.188340
  -0.292182   0.278294  -0.188340
   0.037414  -0.021655  -0.382528
   0.037414  -0.021655  -0.382528
   0.037414  -0.021655  -0.382528
   0.037414  -0.021655  -0.382528
   0.037414  -0.021655  -0.382528
   0.037414  -0.021655  -0.382528
   0.037414  -0.021655  -0.382528
   0.037414  -0.021655  -0.382528
  -0.159690   0.159657  -0.493208
  -0.159690   0.159657  -0.493208
  -0.159690   0.159657  -0.493208
  -0.159690   0.159657  -0.493208
  -0.159690   0.159657  -0.493208
  -0.159690   0.159657  -0.493208
  -0.159690   0.159657  -0.493208
  -0.159690   0.159657  -0.493208
  -0.265146  -0.107762  -0.201872
  -0.265146  -0.107762  -0.201872
  -0.265146  -0.107762  -0.201872
  -0.265146  -0.107762  -0.201872
  -0.265146  -0.107762  -0.201872
  -0.265146  -0.107762  -0.201872
  -0.265146  -0.107762  -0.201872
  -0.265146  -0.107762  -0.201872
   0.251409   0.121095  -0.406349
   0.251409   0.121095  -0.406349
   0.251409   0.121095  -0.406349
   0.251409   0.121095  -0.406349
   0.251409   0.121095  -0.406349
   0.251409   0.121095  -0.406349
   0.251409   0.121095  -0.406349
   0.251409   0.121095  -0.406349
  -0.031434   0.397837   0.053070
  -0.031434   0.397837   0.053070
  -0.031434   0.397837   0.053070
  -0.031434   0.397837   0.053070
  -0.031434   0.397837   0.053070
  -0.031434   0.397837   0.053070
  -0.031434   0.397837   0.053070
  -0.031434   0.397837   0.053070
  -0.159816  -0.093036  -0.337432
  -0.159816  -0.093036  -0.337432
  -0.159816  -0.093036  -0.337432
  -0.159816  -0.093036  -0.337432
  -0.159816  -0.093036  -0.337432
  -0.159816  -0.093036  -0.337432
  -0.159816  -0.093036  -0.337432
  -0.159816  -0.093036  -0.337432
   0.064110   0.177057  -0.214773
   0.064110   0.177057  -0.214773
   0.064110   0.177057  -0.214773
   0.064110   0.177057  -0.214773
   0.064110   0.177057  -0.214773
   0.064110   0.177057  -0.214773
   0.064110   0.177057  -0.214773
   0.064110   0.177057  -0.214773
   0.276228  -0.185150   0.034546
   0.276228  -0.185150   0.034546
   0.276228  -0.185150   0.034546
   0.276228  -0.185150   0.034546
   0.276228  -0.185150   0.034546
   0.276228  -0.185150   0.034546
   0.276228  -0.185150   0.034546
   0.276228  -0.185150   0.034546
  -0.001946  -0.045363  -0.353488
  -0.001946  -0.045363  -0.353488
  -0.001946  -0.045363  -0.353488
  -0.001946  -0.045363  -0.353488
  -0.001946  -0.045363  -0.353488
  -0.001946  -0.045363  -0.353488
  -0.001946  -0.045363  -0.353488
  -0.001946  -0.045363  -0.353488
   0.121870   0.157089   0.023561
   0.121870   0.157089   0.023561
   0.121870   0.157089   0.023561
   0.121870   0.157089   0.023561
   0.121870   0.157089   0.023561
   0.121870   0.157089   0.023561
   0.121870   0.157089   0.023561
   0.121870   0.157089   0.023561
   0.334351   0.029354  -0.157580
   0.334351   0.029354  -0.157580
   0.334351   0.029354  -0.157580
   0.334351   0.029354  -0.157580
   0.334351   0.029354  -0.157580
   0.334351   0.029354  -0.157580
   0.334351   0.029354  -0.157580
   0.334351   0.029354  -0.157580
  -0.160040   0.091980  -0.271326
  -0.160040   0.091980  -0.271326
  -0.160040   0.091980  -0.271326
  -0.160040   0.091980  -0.271326
  -0.160040   0.091980  -0.271326
  -0.160040   0.091980  -0.271326
  -0.160040   0.091980  -0.271326
  -0.160040   0.091980  -0.271326
  -0.307879   0.130524  -0.187693
  -0.307879   0.130524  -0.187693
  -0.307879   0.130524  -0.187693
  -0.307879   0.130524  -0.187693
  -0.307879   0.130524  -0.187693
  -0.307879   0.130524  -0.187693
  -0.307879   0.130524  -0.187693
  -0.307879   0.130524  -0.187693
  -0.256932  -0.025298  -0.357094
  -0.256932  -0.025298  -0.357094
  -0.256932  -0.025298  -0.357094
  -0.256932  -0.025298  -0.357094
  -0.256932  -0.025298  -0.357094
  -0.256932  -0.025298  -0.357094
  -0.256932  -0.025298  -0.357094
  -0.256932  -0.025298  -0.357094
   0.022558  -0.206573  -0.511504
   0.022558  -0.206573  -0.511504
   0.022558  -0.206573  -0.511504
   0.022558  -0.206573  -0.511504
   0.022558  -0.206573  -0.511504
   0.022558  -0.206573  -0.511504
   0.022558  -0.206573  -0.511504
   0.022558  -0.206573  -0.511504
  -0.213070   0.006167  -0.423472
  -0.213070   0.006167  -0.423472
  -0.213070   0.006167  -0.423472
  -0.213070   0.006167  -0.423472
  -0.213070   0.006167  -0.423472
  -0.213070   0.006167  -0.423472
  -0.213070   0.006167  -0.423472
  -0.213070   0.006167  -0.423472
   0.175682   0.116815  -0.338706
   0.175682   0.116815  -0.338706
   0.175682   0.116815  -0.338706
   0.175682   0.116815  -0.338706
   0.175682   0.116815  -0.338706
   0.175682   0.116815  -0.338706
   0.175682   0.116815  -0.338706
   0.175682   0.116815  -0.338706
   0.135052  -0.131242   0.095563
   0.135052  -0.131242   0.095563
   0.135052  -0.131242   0.095563
   0.135052  -0.131242   0.095563
   0.135052  -0.131242   0.095563
   0.135052  -0.131242   0.095563
   0.135052  -0.131242   0.095563
   0.135052  -0.131242   0.095563
   0.138159  -0.128305   0.023029
   0.138159  -0.128305   0.023029
   0.138159  -0.128305   0.023029
   0.138159  -0.128305   0.023029
   0.138159  -0.128305   0.023029
   0.138159  -0.128305   0.023029
   0.138159  -0.128305   0.023029
   0.138159  -0.128305   0.023029
   0.327470   0.245521  -0.016974
   0.327470   0.245521  -0.016974
   0.327470   0.245521  -0.016974
   0.327470   0.245521  -0.016974
   0.327470   0.245521  -0.016974
   0.327470   0.245521  -0.016974
   0.327470   0.245521  -0.016974
   0.327470   0.245521  -0.016974
  -0.227931  -0.046445  -0.442445
  -0.227931  -0.046445  -0.442445
  -0.227931  -0.046445  -0.442445
  -0.227931  -0.046445  -0.442445
  -0.227931  -0.046445  -0.442445
  -0.227931  -0.046445  -0.442445
  -0.227931  -0.046445  -0.442445
  -0.227931  -0.046445  -0.442445
  -0.048561  -0.313337  -0.335788
  -0.048561  -0.313337  -0.335788
  -0.048561  -0.313337  -0.335788
  -0.048561  -0.313337  -0.335788
  -0.048561  -0.313337  -0.335788
  -0.048561  -0.313337  -0.335788
  -0.048561  -0.313337  -0.335788
  -0.048561  -0.313337  -0.335788
  -0.185957  -0.211996  -0.381000
  -0.185957  -0.211996  -0.381000
  -0.185957  -0.211996  -0.381000
  -0.185957  -0.211996  -0.381000
  -0.185957  -0.211996  -0.381000
  -0.185957  -0.211996  -0.381000
  -0.185957  -0.211996  -0.381000
  -0.185957  -0.211996  -0.381000
  -0.158471  -0.004854  -0.033717
  -0.158471  -0.004854  -0.033717
  -0.158471  -0.004854  -0.033717
  -0.158471  -0.004854  -0.033717
  -0.158471  -0.004854  -0.033717
  -0.158471  -0.004854  -0.033717
  -0.158471  -0.004854  -0.033717
  -0.158471  -0.004854  -0.033717
   0.064223   0.005376  -0.073420
   0.064223   0.005376  -0.073420
   0.064223   0.005376  -0.073420
   0.064223   0.005376  -0.073420
   0.064223   0.005376  -0.073420
   0.064223   0.005376  -0.073420
   0.064223   0.005376  -0.073420
   0.064223   0.005376  -0.073420
  -0.121341  -0.207669  -0.427132
  -0.121341  -0.207669  -0.427132
  -0.121341  -0.207669  -0.427132
  -0.121341  -0.207669  -0.427132
  -0.121341  -0.207669  -0.427132
  -0.121341  -0.207669  -0.427132
  -0.121341  -0.207669  -0.427132
  -0.121341  -0.207669  -0.427132
   0.207042   0.196545  -0.149577
   0.207042   0.196545  -0.149577
   0.207042   0.196545  -0.149577
   0.207042   0.196545  -0.149577
   0.207042   0.196545  -0.149577
   0.207042   0.196545  -0.149577
   0.207042   0.196545  -0.149577
   0.207042   0.196545  -0.149577
   0.302385  -0.214374  -0.087573
   0.302385  -0.214374  -0.087573
   0.302385  -0.214374  -0.087573
   0.302385  -0.214374  -0.087573
   0.302385  -0.214374  -0.087573
   0.302385  -0.214374  -0.087573
   0.302385  -0.214374  -0.087573
   0.302385  -0.214374  -0.087573
  -0.095272   0.289606  -0.211870
  -0.095272   0.289606  -0.211870
  -0.095272   0.289606  -0.211870
  -0.095272   0.289606  -0.211870
  -0.095272   0.289606  -0.211870
  -0.095272   0.289606  -0.211870
  -0.095272   0.289606  -0.211870
  -0.095272   0.289606  -0.211870
   0.185254   0.097678  -0.473337
   0.185254   0.097678  -0.473337
   0.185254   0.097678  -0.473337
   0.185254   0.097678  -0.473337
   0.185254   0.097678  -0.473337
   0.185254   0.097678  -0.473337
   0.185254   0.097678  -0.473337
   0.185254   0.097678  -0.473337
   0.191662  -0.226213  -0.402056
   0.191662  -0.226213  -0.402056
   0.191662  -0.226213  -0.402056
   0.191662  -0.226213  -0.402056
   0.191662  -0.226213  -0.402056
   0.191662  -0.226213  -0.402056
   0.191662  -0.226213  -0.402056
   0.191662  -0.226213  -0.402056
  -0.174533   0.056424  -0.385202
  -0.174533   0.056424  -0.385202
  -0.174533   0.056424  -0.385202
  -0.174533   0.056424  -0.385202
  -0.174533   0.056424  -0.385202
  -0.174533   0.056424  -0.385202
  -0.174533   0.056424  -0.385202
  -0.174533   0.056424  -0.385202
  -0.051770   0.072335  -0.222654
  -0.051770   0.072335  -0.222654
  -0.051770   0.072335  -0.222654
  -0.051770   0.072335  -0.222654
  -0.051770   0.072335  -0.222654
  -0.051770   0.072335  -0.222654
  -0.051770   0.072335  -0.222654
  -0.051770   0.072335  -0.222654
   0.068316   0.061733  -0.054332
   0.068316   0.061733  -0.054332
   0.068316   0.061733  -0.054332
   0.068316   0.061733  -0.054332
   0.068316   0.061733  -0.054332
   0.068316   0.061733  -0.054332
   0.068316   0.061733  -0.054332
   0.068316   0.061733  -0.054332
   0.159208   0.034317  -0.306300
   0.159208   0.034317  -0.306300
   0.159208   0.034317  -0.306300
   0.159208   0.034317  -0.306300
   0.159208   0.034317  -0.306300
   0.159208   0.034317  -0.306300
   0.159208   0.034317  -0.306300
   0.159208   0.034317  -0.306300
   0.019196  -0.245572  -0.485053
   0.019196  -0.245572  -0.485053
   0.019196  -0.245572  -0.485053
   0.019196  -0.245572  -0.485053
   0.019196  -0.245572  -0.485053
   0.019196  -0.245572  -0.485053
   0.019196  -0.245572  -0.485053
   0.019196  -0.245572  -0.485053
   0.111310   0.107791  -0.004645
   0.111310   0.107791  -0.004645
   0.111310   0.107791  -0.004645
   0.111310   0.107791  -0.004645
   0.111310   0.107791  -0.004645
   0.111310   0.107791  -0.004645
   0.111310   0.107791  -0.004645
   0.111310   0.107791  -0.004645
   0.133324  -0.042835   0.113362
   0.133324  -0.042835   0.113362
   0.133324  -0.042835   0.113362
   0.133324  -0.042835   0.113362
   0.133324  -0.042835   0.113362
   0.133324  -0.042835   0.113362
   0.133324  -0.042835   0.113362
   0.133324  -0.042835   0.113362
  -0.193158   0.274136  -0.436538
  -0.193158   0.274136  -0.436538
  -0.193158   0.274136  -0.436538
  -0.193158   0.274136  -0.436538
  -0.193158   0.274136  -0.436538
  -0.193158   0.274136  -0.436538
  -0.193158   0.274136  -0.436538
  -0.193158   0.274136  -0.436538
   0.149591   0.315684   0.084404
   0.149591   0.315684   0.084404
   0.149591   0.315684   0.084404
   0.149591   0.315684   0.084404
   0.149591   0.315684   0.084404
   0.149591   0.315684   0.084404
   0.149591   0.315684   0.084404
   0.149591   0.315684   0.084404
  -0.105528  -0.283113  -0.289484
  -0.105528  -0.283113  -0.289484
  -0.105528  -0.283113  -0.289484
  -0.105528  -0.283113  -0.289484
  -0.105528  -0.283113  -0.289484
  -0.105528  -0.283113  -0.289484
  -0.105528  -0.283113  -0.289484
  -0.105528  -0.283113  -0.289484
   0.286590  -0.064934  -0.159238
   0.286590  -0.064934  -0.159238
   0.286590  -0.064934  -0.159238
   0.286590  -0.064934  -0.159238
   0.286590  -0.064934  -0.159238
   0.286590  -0.064934  -0.159238
   0.286590  -0.064934  -0.159238
   0.286590  -0.064934  -0.159238
   0.302784   0.130718  -0.096513
   0.302784   0.130718  -0.096513
   0.302784   0.130718  -0.096513
   0.302784   0.130718  -0.096513
   0.302784   0.130718  -0.096513
   0.302784   0.130718  -0.096513
   0.302784   0.130718  -0.096513
   0.302784   0.130718  -0.096513
   0.328416   0.003385  -0.049093
   0.328416   0.003385  -0.049093
   0.328416   0.003385  -0.049093
   0.328416   0.003385  -0.049093
   0.328416   0.003385  -0.049093
   0.328416   0.003385  -0.049093
   0.328416   0.003385  -0.049093
   0.328416   0.003385  -0.049093
  -0.033137  -0.277656  -0.493928
  -0.033137  -0.277656  -0.493928
  -0.033137  -0.277656  -0.493928
  -0.033137  -0.277656  -0.493928
  -0.033137  -0.277656  -0.493928
  -0.033137  -0.277656  -0.493928
  -0.033137  -0.277656  -0.493928
  -0.033137  -0.277656  -0.493928
  -0.106664   0.005969  -0.298949
  -0.106664   0.005969  -0.298949
  -0.106664   0.005969  -0.298949
  -0.106664   0.005969  -0.298949
  -0.106664   0.005969  -0.298949
  -0.106664   0.005969  -0.298949
  -0.106664   0.005969  -0.298949
  -0.106664   0.005969  -0.298949
   0.016855  -0.108012  -0.481431
   0.016855  -0.108012  -0.481431
   0.016855  -0.108012  -0.481431
   0.016855  -0.108012  -0.481431
   0.016855  -0.108012  -0.481431
   0.016855  -0.108012  -0.481431
   0.016855  -0.108012  -0.481431
   0.016855  -0.108012  -0.481431
   0.252917   0.082667   0.006105
   0.252917   0.082667   0.006105
   0.252917   0.082667   0.006105
   0.252917   0.082667   0.006105
   0.252917   0.082667   0.006105
   0.252917   0.082667   0.006105
   0.252917   0.082667   0.006105
   0.252917   0.082667   0.006105
  -0.220400  -0.291707  -0.377593
  -0.220400  -0.291707  -0.377593
  -0.220400  -0.291707  -0.377593
  -0.220400  -0.291707  -0.377593
  -0.220400  -0.291707  -0.377593
  -0.220400  -0.291707  -0.377593
  -0.220400  -0.291707  -0.377593
  -0.220400  -0.291707  -0.377593
   0.278380  -0.309394  -0.316620
   0.278380  -0.309394  -0.316620
   0.278380  -0.309394  -0.316620
   0.278380  -0.309394  -0.316620
   0.278380  -0.309394  -0.316620
   0.278380  -0.309394  -0.316620
   0.278380  -0.309394  -0.316620
   0.278380  -0.309394  -0.316620
   0.183627   0.032495  -0.434186
   0.183627   0.032495  -0.434186
   0.183627   0.032495  -0.434186
   0.183627   0.032495  -0.434186
   0.183627   0.032495  -0.434186
   0.183627   0.032495  -0.434186
   0.183627   0.032495  -0.434186
   0.183627   0.032495  -0.434186
   0.208190   0.234726  -0.505552
   0.208190   0.234726  -0.505552
   0.208190   0.234726  -0.505552
   0.208190   0.234726  -0.505552
   0.208190   0.234726  -0.505552
   0.208190   0.234726  -0.505552
   0.208190   0.234726  -0.505552
   0.208190   0.234726  -0.505552
   0.330835   0.025430  -0.368730
   0.330835   0.025430  -0.368730
   0.330835   0.025430  -0.368730
   0.330835   0.025430  -0.368730
   0.330835   0.025430  -0.368730
   0.330835   0.025430  -0.368730
   0.330835   0.025430  -0.368730
   0.330835   0.025430  -0.368730
  -0.188161  -0.309360  -0.334490
  -0.188161  -0.309360  -0.334490
  -0.188161  -0.309360  -0.334490
  -0.188161  -0.309360  -0.334490
  -0.188161  -0.309360  -0.334490
  -0.188161  -0.309360  -0.334490
  -0.188161  -0.309360  -0.334490
  -0.188161  -0.309360  -0.334490
  -0.191900   0.255953  -0.206428
  -0.191900   0.255953  -0.206428
  -0.191900   0.255953  -0.206428
  -0.191900   0.255953  -0.206428
  -0.191900   0.255953  -0.206428
  -0.191900   0.255953  -0.206428
  -0.191900   0.255953  -0.206428
  -0.191900   0.255953  -0.206428
   0.028050  -0.058938   0.010795
   0.028050  -0.058938   0.010795
   0.028050  -0.058938   0.010795
   0.028050  -0.058938   0.010795
   0.028050  -0.058938   0.010795
   0.028050  -0.058938   0.010795
   0.028050  -0.058938   0.010795
   0.028050  -0.058938   0.010795
   0.220554  -0.110450   0.119771
   0.220554  -0.110450   0.119771
   0.220554  -0.110450   0.119771
   0.220554  -0.110450   0.119771
   0.220554  -0.110450   0.119771
   0.220554  -0.110450   0.119771
   0.220554  -0.110450   0.119771
   0.220554  -0.110450   0.119771
   0.292594   0.172495   0.062617
   0.292594   0.172495   0.062617
   0.292594   0.172495   0.062617
   0.292594   0.172495   0.062617
   0.292594   0.172495   0.062617
   0.292594   0.172495   0.062617
   0.292594   0.172495   0.062617
   0.292594   0.172495   0.062617
   0.133368   0.158341  -0.429472
   0.133368   0.158341  -0.429472
   0.133368   0.158341  -0.429472
   0.133368   0.158341  -0.429472
   0.133368   0.158341  -0.429472
   0.133368   0.158341  -0.429472
   0.133368   0.158341  -0.429472
   0.133368   0.158341  -0.429472
   0.162670  -0.040014  -0.298941
   0.162670  -0.040014  -0.298941
   0.162670  -0.040014  -0.298941
   0.162670  -0.040014  -0.298941
   0.162670  -0.040014  -0.298941
   0.162670  -0.040014  -0.298941
   0.162670  -0.040014  -0.298941
   0.162670  -0.040014  -0.298941
  -0.134485   0.075893   0.039836
  -0.134485   0.075893   0.039836
  -0.134485   0.075893   0.039836
  -0.134485   0.075893   0.039836
  -0.134485   0.075893   0.039836
  -0.134485   0.075893   0.039836
  -0.134485   0.075893   0.039836
  -0.134485   0.075893   0.039836
  -0.131443   0.282126  -0.466493
  -0.131443   0.282126  -0.466493
  -0.131443   0.282126  -0.466493
  -0.131443   0.282126  -0.466493
  -0.131443   0.282126  -0.466493
  -0.131443   0.282126  -0.466493
  -0.131443   0.282126  -0.466493
  -0.131443   0.282126  -0.466493
  -0.029962   0.145455  -0.138101
  -0.029962   0.145455  -0.138101
  -0.029962   0.145455  -0.138101
  -0.029962   0.145455  -0.138101
  -0.029962   0.145455  -0.138101
  -0.029962   0.145455  -0.138101
  -0.029962   0.145455  -0.138101
  -0.029962   0.145455  -0.138101
   0.301994   0.261461  -0.122720
   0.301994   0.261461  -0.122720
   0.301994   0.261461  -0.122720
   0.301994   0.261461  -0.122720
   0.301994   0.261461  -0.122720
   0.301994   0.261461  -0.122720
   0.301994   0.261461  -0.122720
   0.301994   0.261461  -0.122720
   0.326253  -0.019854  -0.089960
   0.326253  -0.019854  -0.089960
   0.326253  -0.019854  -0.089960
   0.326253  -0.019854  -0.089960
   0.326253  -0.019854  -0.089960
   0.326253  -0.019854  -0.089960
   0.326253  -0.019854  -0.089960
   0.326253  -0.019854  -0.089960
   0.255101   0.082348  -0.102273
   0.255101   0.082348  -0.102273
   0.255101   0.082348  -0.102273
   0.255101   0.082348  -0.102273
   0.255101   0.082348  -0.102273
   0.255101   0.082348  -0.102273
   0.255101   0.082348  -0.102273
   0.255101   0.082348  -0.102273
   0.059331  -0.023889  -0.049522
   0.059331  -0.023889  -0.049522
   0.059331  -0.023889  -0.049522
   0.059331  -0.023889  -0.049522
   0.059331  -0.023889  -0.049522
   0.059331  -0.023889  -0.049522
   0.059331  -0.023889  -0.049522
   0.059331  -0.023889  -0.049522
  -0.122163   0.213191  -0.117557
  -0.122163   0.213191  -0.117557
  -0.122163   0.213191  -0.117557
  -0.122163   0.213191  -0.117557
  -0.122163   0.213191  -0.117557
  -0.122163   0.213191  -0.117557
  -0.122163   0.213191  -0.117557
  -0.122163   0.213191  -0.117557
  -0.109993   0.265808  -0.009363
  -0.109993   0.265808  -0.009363
  -0.109993   0.265808  -0.009363
  -0.109993   0.265808  -0.009363
  -0.109993   0.265808  -0.009363
  -0.109993   0.265808  -0.009363
  -0.109993   0.265808  -0.009363
  -0.109993   0.265808  -0.009363
   0.096740   0.203449  -0.257468
   0.096740   0.203449  -0.257468
   0.096740   0.203449  -0.257468
   0.096740   0.203449  -0.257468
   0.096740   0.203449  -0.257468
   0.096740   0.203449  -0.257468
   0.096740   0.203449  -0.257468
   0.096740   0.203449  -0.257468
   0.054254  -0.069707  -0.062793
   0.054254  -0.069707  -0.062793
   0.054254  -0.069707  -0.062793
   0.054254  -0.069707  -0.062793
   0.054254  -0.069707  -0.062793
   0.054254  -0.069707  -0.062793
   0.054254  -0.069707  -0.062793
   0.054254  -0.069707  -0.062793
  -0.018759   0.035117  -0.417974
  -0.018759   0.035117  -0.417974
  -0.018759   0.035117  -0.417974