# vtk DataFile Version 2.0
Startpositionen
ASCII
DATASET POLYDATA
 POINTS         6744  float

   0.1639   0.3513   0.0501
   0.0615   0.3118   0.0488
   0.1010   0.2096   0.0449
   0.2033   0.2491   0.0462
   0.1639   0.3502   0.0790
   0.0616   0.3107   0.0778
   0.1010   0.2086   0.0739
   0.2034   0.2480   0.0751
   0.1815   0.2634   0.1529
   0.1814   0.2113   0.1436
   0.0727   0.2125   0.1372
   0.0727   0.2647   0.1465
   0.1833   0.2687   0.1233
   0.1832   0.2166   0.1140
   0.0745   0.2178   0.1076
   0.0745   0.2700   0.1169
   0.4152   0.0508   0.0499
   0.5071   0.0006   0.0478
   0.5548   0.0877   0.0518
   0.4629   0.1380   0.0539
   0.4151   0.0495   0.0793
   0.5070  -0.0008   0.0772
   0.5548   0.0864   0.0812
   0.4629   0.1366   0.0834
   0.5641   0.1381   0.0720
   0.5666   0.1531   0.1446
   0.5724   0.0503   0.1657
   0.5699   0.0353   0.0930
   0.5927   0.1395   0.0707
   0.5952   0.1545   0.1434
   0.6010   0.0516   0.1644
   0.5985   0.0366   0.0918
   0.6816   0.0759   0.1832
   0.7010   0.1048   0.1298
   0.7790   0.0472   0.1268
   0.7597   0.0183   0.1803
   0.6662   0.0559   0.1668
   0.6856   0.0848   0.1134
   0.7636   0.0272   0.1104
   0.7442  -0.0018   0.1639
   1.2279   0.1027   0.0879
   1.0862   0.0574   0.0921
   1.0575   0.1459   0.0769
   1.1992   0.1912   0.0726
   1.2286   0.0979   0.0592
   1.0869   0.0527   0.0635
   1.0581   0.1412   0.0482
   1.1998   0.1865   0.0440
   1.1948   0.0930   0.1054
   1.1465   0.1099   0.1484
   1.1976   0.1793   0.1786
   1.2459   0.1624   0.1355
   1.1831   0.1103   0.0855
   1.1348   0.1271   0.1286
   1.1859   0.1965   0.1587
   1.2342   0.1796   0.1157
   1.3000   0.1019   0.1281
   1.3317   0.0555   0.0727
   1.3929   0.0183   0.1389
   1.3611   0.0647   0.1943
   1.2802   0.0808   0.1345
   1.3120   0.0344   0.0791
   1.3731  -0.0028   0.1453
   1.3414   0.0436   0.2007
   1.5735   0.1622   0.0659
   1.6573   0.1151   0.1145
   1.7026   0.2082   0.1265
   1.6189   0.2553   0.0779
   1.5598   0.1654   0.0925
   1.6436   0.1183   0.1412
   1.6890   0.2115   0.1532
   1.6052   0.2585   0.1045
   0.2431   0.0980   0.2610
   0.1745   0.1985   0.1953
   0.2270   0.2636   0.2400
   0.2956   0.1631   0.3058
   0.2640   0.0971   0.2379
   0.1954   0.1976   0.1722
   0.2479   0.2627   0.2169
   0.3165   0.1622   0.2826
   0.2127   0.2794   0.0555
   0.2598   0.1915   0.0573
   0.3468   0.2380   0.0507
   0.2997   0.3259   0.0489
   0.2141   0.2808   0.0850
   0.2613   0.1929   0.0868
   0.3483   0.2394   0.0802
   0.3011   0.3273   0.0784
   0.5614   0.3897   0.2066
   0.4897   0.3107   0.1634
   0.5161   0.2452   0.2396
   0.5878   0.3242   0.2827
   0.5385   0.4010   0.2242
   0.4668   0.3219   0.1810
   0.4932   0.2564   0.2572
   0.5649   0.3354   0.3003
   0.8269   0.2118   0.1181
   0.7015   0.2747   0.1546
   0.7520   0.3504   0.1980
   0.8774   0.2875   0.1614
   0.8268   0.2270   0.0918
   0.7014   0.2898   0.1283
   0.7519   0.3655   0.1717
   0.8773   0.3026   0.1351
   0.8313   0.3207   0.1230
   0.7746   0.3485   0.0852
   0.7343   0.3898   0.1762
   0.7911   0.3620   0.2139
   0.8466   0.3457   0.1184
   0.7898   0.3735   0.0806
   0.7496   0.4148   0.1716
   0.8064   0.3870   0.2094
   0.9745   0.2701   0.1550
   0.9211   0.2681   0.1419
   0.9211   0.3709   0.1272
   0.9745   0.3728   0.1403
   0.9818   0.2659   0.1260
   0.9284   0.2640   0.1129
   0.9283   0.3668   0.0982
   0.9817   0.3687   0.1113
   1.0515   0.2996   0.0881
   1.1135   0.2999   0.0817
   1.1196   0.2173   0.1364
   1.0575   0.2170   0.1428
   1.0490   0.2833   0.0638
   1.1111   0.2836   0.0573
   1.1172   0.2010   0.1120
   1.0551   0.2007   0.1185
   1.3427   0.2064   0.0542
   1.4280   0.1492   0.0672
   1.4808   0.2257   0.0575
   1.3954   0.2829   0.0446
   1.3414   0.2108   0.0824
   1.4267   0.1536   0.0954
   1.4795   0.2301   0.0858
   1.3941   0.2874   0.0728
   1.4989   0.3026   0.0998
   1.5649   0.2964   0.1159
   1.5398   0.2505   0.2013
   1.4737   0.2567   0.1852
   1.4998   0.2768   0.0862
   1.5658   0.2706   0.1023
   1.5407   0.2248   0.1878
   1.4746   0.2310   0.1717
   0.1629   0.4573   0.1643
   0.2393   0.5318   0.2255
   0.2544   0.5868   0.1396
   0.1780   0.5123   0.0785
   0.1401   0.4748   0.1715
   0.2165   0.5492   0.2326
   0.2316   0.6043   0.1468
   0.1552   0.5298   0.0857
   0.3638   0.3226   0.2942
   0.3862   0.3852   0.1974
   0.3282   0.4555   0.2294
   0.3058   0.3929   0.3262
   0.3882   0.3361   0.3086
   0.4105   0.3987   0.2118
   0.3525   0.4690   0.2438
   0.3301   0.4064   0.3406
   0.5464   0.3802   0.2864
   0.6008   0.4097   0.1851
   0.5507   0.4917   0.1821
   0.4963   0.4622   0.2833
   0.5690   0.3947   0.3028
   0.6235   0.4242   0.2015
   0.5734   0.5062   0.1984
   0.5189   0.4767   0.2997
   0.7980   0.6844   0.2275
   0.9250   0.6096   0.2207
   0.8718   0.5179   0.2361
   0.7448   0.5927   0.2430
   0.7945   0.6812   0.1970
   0.9215   0.6064   0.1901
   0.8683   0.5147   0.2056
   0.7413   0.5895   0.2125
   0.7909   0.3790   0.0740
   0.7274   0.3615   0.0866
   0.7271   0.4157   0.1599
   0.7905   0.4332   0.1473
   0.7815   0.4012   0.0575
   0.7180   0.3837   0.0702
   0.7177   0.4378   0.1434
   0.7811   0.4554   0.1308
   1.0750   0.3386   0.0578
   0.9914   0.3783   0.0504
   0.9520   0.2986   0.0690
   1.0356   0.2590   0.0764
   1.0755   0.3451   0.0866
   0.9919   0.3847   0.0792
   0.9525   0.3051   0.0978
   1.0361   0.2655   0.1052
   1.1839   0.4116   0.0855
   1.1541   0.3462   0.0850
   1.1340   0.3547   0.1760
   1.1639   0.4201   0.1765
   1.1581   0.4235   0.0787
   1.1282   0.3581   0.0782
   1.1081   0.3666   0.1692
   1.1380   0.4319   0.1697
   1.3708   0.4960   0.2302
   1.2905   0.5016   0.2396
   1.2771   0.4653   0.1475
   1.3575   0.4596   0.1381
   1.3702   0.4674   0.2415
   1.2898   0.4731   0.2510
   1.2764   0.4367   0.1589
   1.3568   0.4310   0.1495
   1.6763   0.5825   0.1443
   1.6115   0.5657   0.2015
   1.6176   0.4642   0.1785
   1.6824   0.4810   0.1213
   1.6974   0.5786   0.1670
   1.6326   0.5618   0.2242
   1.6386   0.4603   0.2012
   1.7034   0.4771   0.1440
   0.0407   0.5564   0.0699
   0.0201   0.4779   0.0800
   0.0642   0.4770   0.1627
   0.0848   0.5554   0.1527
   0.0161   0.5645   0.0831
  -0.0045   0.4861   0.0932
   0.0396   0.4851   0.1759
   0.0602   0.5636   0.1659
   0.4153   0.7671   0.0623
   0.4073   0.6811   0.1548
   0.3990   0.7581   0.2257
   0.4070   0.8441   0.1331
   0.3851   0.7666   0.0592
   0.3771   0.6806   0.1518
   0.3688   0.7577   0.2227
   0.3768   0.8437   0.1301
   0.5536   0.5103   0.1593
   0.6293   0.6294   0.1778
   0.6972   0.5797   0.2198
   0.6215   0.4606   0.2013
   0.5672   0.5059   0.1322
   0.6428   0.6250   0.1507
   0.7107   0.5753   0.1927
   0.6350   0.4562   0.1742
   0.6120   0.7449   0.1422
   0.6627   0.7797   0.0804
   0.5900   0.8577   0.0647
   0.5393   0.8230   0.1265
   0.6257   0.7619   0.1629
   0.6764   0.7966   0.1012
   0.6037   0.8747   0.0854
   0.5530   0.8400   0.1472
   0.8939   0.6857   0.2639
   0.9662   0.7613   0.1912
   0.9424   0.7046   0.1087
   0.8701   0.6290   0.1814
   0.8710   0.7027   0.2588
   0.9433   0.7782   0.1861
   0.9196   0.7215   0.1036
   0.8473   0.6460   0.1763
   1.2121   0.6188   0.1375
   1.1346   0.5136   0.1607
   1.0767   0.5414   0.0936
   1.1542   0.6466   0.0704
   1.2273   0.6033   0.1179
   1.1498   0.4981   0.1412
   1.0919   0.5259   0.0741
   1.1694   0.6311   0.0508
   1.1006   0.6637   0.0633
   1.1528   0.7083   0.0583
   1.1820   0.6848   0.1532
   1.1298   0.6401   0.1582
   1.1178   0.6424   0.0527
   1.1700   0.6870   0.0477
   1.1992   0.6635   0.1426
   1.1470   0.6188   0.1476
   1.3474   0.6759   0.1531
   1.4218   0.6809   0.1031
   1.3821   0.7683   0.0526
   1.3076   0.7633   0.1027
   1.3602   0.6939   0.1740
   1.4347   0.6988   0.1240
   1.3950   0.7862   0.0735
   1.3205   0.7812   0.1236
   1.7173   0.6708   0.1556
   1.6401   0.7392   0.1667
   1.5764   0.6660   0.1751
   1.6536   0.5976   0.1640
   1.7216   0.6707   0.1861
   1.6444   0.7391   0.1972
   1.5806   0.6658   0.2056
   1.6578   0.5974   0.1945
   0.1953   0.9305   0.0485
   0.1532   0.8184   0.0484
   0.1883   0.8051   0.1454
   0.2304   0.9172   0.1455
   0.1684   0.9406   0.0596
   0.1263   0.8285   0.0595
   0.1614   0.8152   0.1565
   0.2035   0.9273   0.1566
   0.2377   0.7734   0.0571
   0.2595   0.6731   0.0477
   0.3495   0.6931   0.0435
   0.3276   0.7934   0.0529
   0.2395   0.7711   0.0857
   0.2614   0.6708   0.0763
   0.3513   0.6908   0.0721
   0.3294   0.7911   0.0815
   0.5712   0.9626   0.1785
   0.4804   0.8992   0.1549
   0.5081   0.8324   0.2275
   0.5989   0.8957   0.2512
   0.5548   0.9784   0.1993
   0.4639   0.9151   0.1757
   0.4916   0.8482   0.2484
   0.5825   0.9116   0.2720
   0.7818   0.7674   0.3085
   0.7713   0.8292   0.2098
   0.6772   0.8494   0.2325
   0.6877   0.7875   0.3312
   0.7910   0.7932   0.3237
   0.7805   0.8551   0.2251
   0.6864   0.8752   0.2477
   0.6969   0.8134   0.3464
   0.7737   0.9503   0.0907
   0.7333   0.9855   0.1314
   0.8204   1.0217   0.1866
   0.8608   0.9865   0.1460
   0.7756   0.9730   0.0730
   0.7351   1.0082   0.1136
   0.8222   1.0444   0.1689
   0.8626   1.0091   0.1282
   1.0587   1.0418   0.2902
   1.0791   1.0209   0.1722
   1.1815   0.9911   0.1952
   1.1611   1.0121   0.3132
   1.0493   1.0121   0.2938
   1.0697   0.9912   0.1759
   1.1720   0.9614   0.1989
   1.1516   0.9824   0.3168
   1.2343   0.7391   0.1135
   1.1725   0.7230   0.0574
   1.1281   0.6729   0.1206
   1.1899   0.6891   0.1767
   1.2197   0.7634   0.1226
   1.1579   0.7473   0.0664
   1.1136   0.6973   0.1296
   1.1754   0.7134   0.1858
   1.5441   0.8618   0.1206
   1.6454   0.7747   0.1656
   1.5816   0.7106   0.1853
   1.4802   0.7976   0.1403
   1.5468   0.8504   0.0926
   1.6481   0.7634   0.1376
   1.5843   0.6993   0.1573
   1.4830   0.7863   0.1123
   1.8431   0.9250   0.1404
[...]
POINT_DATA  6744
VECTORS velocity float
  -0.002484   0.236837  -0.179789
  -0.002484   0.236837  -0.179789
  -0.002484   0.236837  -0.179789
  -0.002484   0.236837  -0.179789
  -0.002484   0.236837  -0.179789
  -0.002484   0.236837  -0.179789
  -0.002484   0.236837  -0.179789
  -0.002484   0.236837  -0.179789
  -0.128423   0.122318  -0.451279
  -0.128423   0.122318  -0.451279
  -0.128423   0.122318  -0.451279
  -0.128423   0.122318  -0.451279
  -0.128423   0.122318  -0.451279
  -0.128423   0.122318  -0.451279
  -0.128423   0.122318  -0.451279
  -0.128423   0.122318  -0.451279
  -0.153581   0.018444   0.047115
  -0.153581   0.018444   0.047115
  -0.153581   0.018444   0.047115
  -0.153581   0.018444   0.047115
  -0.153581   0.018444   0.047115
  -0.153581   0.018444   0.047115
  -0.153581   0.018444   0.047115
  -0.153581   0.018444   0.047115
  -0.042609  -0.259081  -0.036447
  -0.042609  -0.259081  -0.036447
  -0.042609  -0.259081  -0.036447
  -0.042609  -0.259081  -0.036447
  -0.042609  -0.259081  -0.036447
  -0.042609  -0.259081  -0.036447
  -0.042609  -0.259081  -0.036447
  -0.042609  -0.259081  -0.036447
  -0.074820  -0.002951  -0.381168
  -0.074820  -0.002951  -0.381168
  -0.074820  -0.002951  -0.381168
  -0.074820  -0.002951  -0.381168
  -0.074820  -0.002951  -0.381168
  -0.074820  -0.002951  -0.381168
  -0.074820  -0.002951  -0.381168
  -0.074820  -0.002951  -0.381168
   0.010859  -0.039614  -0.082244
   0.010859  -0.039614  -0.082244
   0.010859  -0.039614  -0.082244
   0.010859  -0.039614  -0.082244
   0.010859  -0.039614  -0.082244
   0.010859  -0.039614  -0.082244
   0.010859  -0.039614  -0.082244
   0.010859  -0.039614  -0.082244
   0.054519   0.105496  -0.145565
   0.054519   0.105496  -0.145565
   0.054519   0.105496  -0.145565
   0.054519   0.105496  -0.145565
   0.054519   0.105496  -0.145565
   0.054519   0.105496  -0.145565
   0.054519   0.105496  -0.145565
   0.054519   0.105496  -0.145565
   0.005964   0.005587   0.250296
   0.005964   0.005587   0.250296
   0.005964   0.005587   0.250296
   0.005964   0.005587   0.250296
   0.005964   0.005587   0.250296
   0.005964   0.005587   0.250296
   0.005964   0.005587   0.250296
   0.005964   0.005587   0.250296
   0.033621   0.092855  -0.502487
   0.033621   0.092855  -0.502487
   0.033621   0.092855  -0.502487
   0.033621   0.092855  -0.502487
   0.033621   0.092855  -0.502487
   0.033621   0.092855  -0.502487
   0.033621   0.092855  -0.502487
   0.033621   0.092855  -0.502487
   0.162822  -0.109136  -0.395816
   0.162822  -0.109136  -0.395816
   0.162822  -0.109136  -0.395816
   0.162822  -0.109136  -0.395816
   0.162822  -0.109136  -0.395816
   0.162822  -0.109136  -0.395816
   0.162822  -0.109136  -0.395816
   0.162822  -0.109136  -0.395816
  -0.023344  -0.014779   0.285792
  -0.023344  -0.014779   0.285792
  -0.023344  -0.014779   0.285792
  -0.023344  -0.014779   0.285792
  -0.023344  -0.014779   0.285792
  -0.023344  -0.014779   0.285792
  -0.023344  -0.014779   0.285792
  -0.023344  -0.014779   0.285792
   0.058697   0.006197  -0.411864
   0.058697   0.006197  -0.411864
   0.058697   0.006197  -0.411864
   0.058697   0.006197  -0.411864
   0.058697   0.006197  -0.411864
   0.058697   0.006197  -0.411864
   0.058697   0.006197  -0.411864
   0.058697   0.006197  -0.411864
  -0.004262  -0.037967  -0.407990
  -0.004262  -0.037967  -0.407990
  -0.004262  -0.037967  -0.407990
  -0.004262  -0.037967  -0.407990
  -0.004262  -0.037967  -0.407990
  -0.004262  -0.037967  -0.407990
  -0.004262  -0.037967  -0.407990
  -0.004262  -0.037967  -0.407990
   0.049448   0.031631   0.010972
   0.049448   0.031631   0.010972
   0.049448   0.031631   0.010972
   0.049448   0.031631   0.010972
   0.049448   0.031631   0.010972
   0.049448   0.031631   0.010972
   0.049448   0.031631   0.010972
   0.049448   0.031631   0.010972
   0.198066   0.033304  -0.469110
   0.198066   0.033304  -0.469110
   0.198066   0.033304  -0.469110
   0.198066   0.033304  -0.469110
   0.198066   0.033304  -0.469110
   0.198066   0.033304  -0.469110
   0.198066   0.033304  -0.469110
   0.198066   0.033304  -0.469110
  -0.123064  -0.249039   0.056030
  -0.123064  -0.249039   0.056030
  -0.123064  -0.249039   0.056030
  -0.123064  -0.249039   0.056030
  -0.123064  -0.249039   0.056030
  -0.123064  -0.249039   0.056030
  -0.123064  -0.249039   0.056030
  -0.123064  -0.249039   0.056030
   0.007651   0.163761  -0.051958
   0.007651   0.163761  -0.051958
   0.007651   0.163761  -0.051958
   0.007651   0.163761  -0.051958
   0.007651   0.163761  -0.051958
   0.007651   0.163761  -0.051958
   0.007651   0.163761  -0.051958
   0.007651   0.163761  -0.051958
   0.079646  -0.117917   0.161799
   0.079646  -0.117917   0.161799
   0.079646  -0.117917   0.161799
   0.079646  -0.117917   0.161799
   0.079646  -0.117917   0.161799
   0.079646  -0.117917   0.161799
   0.079646  -0.117917   0.161799
   0.079646  -0.117917   0.161799
   0.179596   0.063314   0.204081
   0.179596   0.063314   0.204081
   0.179596   0.063314   0.204081
   0.179596   0.063314   0.204081
   0.179596   0.063314   0.204081
   0.179596   0.063314   0.204081
   0.179596   0.063314   0.204081
   0.179596   0.063314   0.204081
   0.091543  -0.088960  -0.373765
   0.091543  -0.088960  -0.373765
   0.091543  -0.088960  -0.373765
   0.091543  -0.088960  -0.373765
   0.091543  -0.088960  -0.373765
   0.091543  -0.088960  -0.373765
   0.091543  -0.088960  -0.373765
   0.091543  -0.088960  -0.373765
   0.113946   0.015831  -0.419474
   0.113946   0.015831  -0.419474
   0.113946   0.015831  -0.419474
   0.113946   0.015831  -0.419474
   0.113946   0.015831  -0.419474
   0.113946   0.015831  -0.419474
   0.113946   0.015831  -0.419474
   0.113946   0.015831  -0.419474
   0.040207  -0.077641  -0.246272
   0.040207  -0.077641  -0.246272
   0.040207  -0.077641  -0.246272
   0.040207  -0.077641  -0.246272
   0.040207  -0.077641  -0.246272
   0.040207  -0.077641  -0.246272
   0.040207  -0.077641  -0.246272
   0.040207  -0.077641  -0.246272
   0.042070   0.101147   0.089526
   0.042070   0.101147   0.089526
   0.042070   0.101147   0.089526
   0.042070   0.101147   0.089526
   0.042070   0.101147   0.089526
   0.042070   0.101147   0.089526
   0.042070   0.101147   0.089526
   0.042070   0.101147   0.089526
   0.057184  -0.277058  -0.093810
   0.057184  -0.277058  -0.093810
   0.057184  -0.277058  -0.093810
   0.057184  -0.277058  -0.093810
   0.057184  -0.277058  -0.093810
   0.057184  -0.277058  -0.093810
   0.057184  -0.277058  -0.093810
   0.057184  -0.277058  -0.093810
   0.081431   0.135759   0.211520
   0.081431   0.135759   0.211520
   0.081431   0.135759   0.211520
   0.081431   0.135759   0.211520
   0.081431   0.135759   0.211520
   0.081431   0.135759   0.211520
   0.081431   0.135759   0.211520
   0.081431   0.135759   0.211520
  -0.092974  -0.007997  -0.458465
  -0.092974  -0.007997  -0.458465
  -0.092974  -0.007997  -0.458465
  -0.092974  -0.007997  -0.458465
  -0.092974  -0.007997  -0.458465
  -0.092974  -0.007997  -0.458465
  -0.092974  -0.007997  -0.458465
  -0.092974  -0.007997  -0.458465
   0.135410   0.028351  -0.498879
   0.135410   0.028351  -0.498879
   0.135410   0.028351  -0.498879
   0.135410   0.028351  -0.498879
   0.135410   0.028351  -0.498879
   0.135410   0.028351  -0.498879
   0.135410   0.028351  -0.498879
   0.135410   0.028351  -0.498879
  -0.007948  -0.259466   0.040948
  -0.007948  -0.259466   0.040948
  -0.007948  -0.259466   0.040948
  -0.007948  -0.259466   0.040948
  -0.007948  -0.259466   0.040948
  -0.007948  -0.259466   0.040948
  -0.007948  -0.259466   0.040948
  -0.007948  -0.259466   0.040948
   0.111384   0.105737  -0.476998
   0.111384   0.105737  -0.476998
   0.111384   0.105737  -0.476998
   0.111384   0.105737  -0.476998
   0.111384   0.105737  -0.476998
   0.111384   0.105737  -0.476998
   0.111384   0.105737  -0.476998
   0.111384   0.105737  -0.476998
   0.161362  -0.114396  -0.445085
   0.161362  -0.114396  -0.445085
   0.161362  -0.114396  -0.445085
   0.161362  -0.114396  -0.445085
   0.161362  -0.114396  -0.445085
   0.161362  -0.114396  -0.445085
   0.161362  -0.114396  -0.445085
   0.161362  -0.114396  -0.445085
  -0.046757   0.142130  -0.486344
  -0.046757   0.142130  -0.486344
  -0.046757   0.142130  -0.486344
  -0.046757   0.142130  -0.486344
  -0.046757   0.142130  -0.486344
  -0.046757   0.142130  -0.486344
  -0.046757   0.142130  -0.486344
  -0.046757   0.142130  -0.486344
   0.141006   0.292417  -0.143705
   0.141006   0.292417  -0.143705
   0.141006   0.292417  -0.143705
   0.141006   0.292417  -0.143705
   0.141006   0.292417  -0.143705
   0.141006   0.292417  -0.143705
   0.141006   0.292417  -0.143705
   0.141006   0.292417  -0.143705
   0.075284  -0.029751   0.189510
   0.075284  -0.029751   0.189510
   0.075284  -0.029751   0.189510
   0.075284  -0.029751   0.189510
   0.075284  -0.029751   0.189510
   0.075284  -0.029751   0.189510
   0.075284  -0.029751   0.189510
   0.075284  -0.029751   0.189510
   0.040460  -0.121576  -0.074147
   0.040460  -0.121576  -0.074147
   0.040460  -0.121576  -0.074147
   0.040460  -0.121576  -0.074147
   0.040460  -0.121576  -0.074147
   0.040460  -0.121576  -0.074147
   0.040460  -0.121576  -0.074147
   0.040460  -0.121576  -0.074147
  -0.037830   0.037970  -0.517923
  -0.037830   0.037970  -0.517923
  -0.037830   0.037970  -0.517923
  -0.037830   0.037970  -0.517923
  -0.037830   0.037970  -0.517923
  -0.037830   0.037970  -0.517923
  -0.037830   0.037970  -0.517923
  -0.037830   0.037970  -0.517923
   0.081586   0.057935  -0.466511
   0.081586   0.057935  -0.466511
   0.081586   0.057935  -0.466511
   0.081586   0.057935  -0.466511
   0.081586   0.057935  -0.466511
   0.081586   0.057935  -0.466511
   0.081586   0.057935  -0.466511
   0.081586   0.057935  -0.466511
   0.085221  -0.008547  -0.532565
   0.085221  -0.008547  -0.532565
   0.085221  -0.008547  -0.532565
   0.085221  -0.008547  -0.532565
   0.085221  -0.008547  -0.532565
   0.085221  -0.008547  -0.532565
   0.085221  -0.008547  -0.532565
   0.085221  -0.008547  -0.532565
   0.000010   0.000054  -0.022103
   0.000010   0.000054  -0.022103
   0.000010   0.000054  -0.022103
   0.000010   0.000054  -0.022103
   0.000010   0.000054  -0.022103
   0.000010   0.000054  -0.022103
   0.000010   0.000054  -0.022103
   0.000010   0.000054  -0.022103
   0.071903   0.069630  -0.427318
   0.071903   0.069630  -0.427318
   0.071903   0.069630  -0.427318
   0.071903   0.069630  -0.427318
   0.071903   0.069630  -0.427318
   0.071903   0.069630  -0.427318
   0.071903   0.069630  -0.427318
   0.071903   0.069630  -0.427318
   0.094991  -0.030545  -0.366711
   0.094991  -0.030545  -0.366711
   0.094991  -0.030545  -0.366711
   0.094991  -0.030545  -0.366711
   0.094991  -0.030545  -0.366711
   0.094991  -0.030545  -0.366711
   0.094991  -0.030545  -0.366711
   0.094991  -0.030545  -0.366711
   0.133603   0.184937   0.036733
   0.133603   0.184937   0.036733
   0.133603   0.184937   0.036733
   0.133603   0.184937   0.036733
   0.133603   0.184937   0.036733
   0.133603   0.184937   0.036733
   0.133603   0.184937   0.036733
   0.133603   0.184937   0.036733
   0.083289   0.114594  -0.448357
   0.083289   0.114594  -0.448357
   0.083289   0.114594  -0.448357
   0.083289   0.114594  -0.448357
   0.083289   0.114594  -0.448357
   0.083289   0.114594  -0.448357
   0.083289   0.114594  -0.448357
   0.083289   0.114594  -0.448357
  -0.002664  -0.013687  -0.147446
  -0.002664  -0.013687  -0.147446
  -0.002664  -0.013687  -0.147446
  -0.002664  -0.013687  -0.147446
  -0.002664  -0.013687  -0.147446
  -0.002664  -0.013687  -0.147446
  -0.002664  -0.013687  -0.147446
  -0.002664  -0.013687  -0.147446
   0.151692  -0.034370  -0.478371
   0.151692  -0.034370  -0.478371
   0.151692  -0.034370  -0.478371
   0.151692  -0.034370  -0.478371
   0.151692  -0.034370  -0.478371
   0.151692  -0.034370  -0.478371
   0.151692  -0.034370  -0.478371
   0.151692  -0.034370  -0.478371
   0.166144   0.071728  -0.454531
   0.166144   0.071728  -0.454531
   0.166144   0.071728  -0.454531
   0.166144   0.071728  -0.454531
   0.166144   0.071728  -0.454531
   0.166144   0.071728  -0.454531
   0.166144   0.071728  -0.454531
   0.166144   0.071728  -0.454531
   0.132780  -0.064413  -0.346201
   0.132780  -0.064413  -0.346201
   0.132780  -0.064413  -0.346201
   0.132780  -0.064413  -0.346201
   0.132780  -0.064413  -0.346201
   0.132780  -0.064413  -0.346201
   0.132780  -0.064413  -0.346201
   0.132780  -0.064413  -0.346201
  -0.041772   0.049974  -0.030561
  -0.041772   0.049974  -0.030561
  -0.041772   0.049974  -0.030561
  -0.041772   0.049974  -0.030561
  -0.041772   0.049974  -0.030561
  -0.041772   0.049974  -0.030561
  -0.041772   0.049974  -0.030561
  -0.041772   0.049974  -0.030561
   0.179817   0.274737   0.148713
   0.179817   0.274737   0.148713
   0.179817   0.274737   0.148713
   0.179817   0.274737   0.148713
   0.179817   0.274737   0.148713
   0.179817   0.274737   0.148713
   0.179817   0.274737   0.148713
   0.179817   0.274737   0.148713
   0.001120  -0.010144   0.027404
   0.001120  -0.010144   0.027404
   0.001120  -0.010144   0.027404
   0.001120  -0.010144   0.027404
   0.001120  -0.010144   0.027404
   0.001120  -0.010144   0.027404
   0.001120  -0.010144   0.027404
   0.001120  -0.010144   0.027404
   0.154429   0.050476  -0.415473
   0.154429   0.050476  -0.415473
   0.154429   0.050476  -0.415473
   0.154429   0.050476  -0.415473
   0.154429   0.050476  -0.415473
   0.154429   0.050476  -0.415473
   0.154429   0.050476  -0.415473
   0.154429   0.050476  -0.415473
  -0.195698   0.141089   0.116777
  -0.195698   0.141089   0.116777
  -0.195698   0.141089   0.116777
  -0.195698   0.141089   0.116777
  -0.195698   0.141089   0.116777
  -0.195698   0.141089   0.116777
  -0.195698   0.141089   0.116777
  -0.195698   0.141089   0.116777
  -0.033123  -0.270774  -0.279195
  -0.033123  -0.270774  -0.279195
  -0.033123  -0.270774  -0.279195
  -0.033123  -0.270774  -0.279195
  -0.033123  -0.270774  -0.279195
  -0.033123  -0.270774  -0.279195
  -0.033123  -0.270774  -0.279195
  -0.033123  -0.270774  -0.279195
  -0.268639  -0.035284   0.008002
  -0.268639  -0.035284   0.008002
  -0.268639  -0.035284   0.008002
  -0.268639  -0.035284   0.008002
  -0.268639  -0.035284   0.008002
  -0.268639  -0.035284   0.008002
  -0.268639  -0.035284   0.008002
  -0.268639  -0.035284   0.008002
  -0.210078   0.109284  -0.023923
  -0.210078   0.109284  -0.023923
  -0.210078   0.109284  -0.023923
  -0.210078   0.109284  -0.023923
  -0.210078   0.109284  -0.023923
  -0.210078   0.109284  -0.023923
  -0.210078   0.109284  -0.023923
  -0.210078   0.109284  -0.023923
  -0.026396  -0.072009   0.203282
  -0.026396  -0.072009   0.203282
  -0.026396  -0.072009   0.203282
  -0.026396  -0.072009   0.203282
  -0.026396  -0.072009   0.203282
  -0.026396  -0.072009   0.203282
  -0.026396  -0.072009   0.203282
  -0.026396  -0.072009   0.203282
   0.020899   0.099480   0.008675
   0.020899   0.099480   0.008675
   0.020899   0.099480   0.008675
   0.020899   0.099480   0.008675
   0.020899   0.099480   0.008675
   0.020899   0.099480   0.008675
   0.020899   0.099480   0.008675
   0.020899   0.099480   0.008675
  -0.091771   0.122402  -0.477313
  -0.091771   0.122402  -0.477313
  -0.091771   0.122402  -0.477313
  -0.091771   0.122402  -0.477313
  -0.091771   0.122402  -0.477313
  -0.091771   0.122402  -0.477313
  -0.091771   0.122402  -0.477313
  -0.091771   0.122402  -0.477313
   0.026487   0.008836  -0.459641
   0.026487   0.008836  -0.459641
   0.026487   0.008836  -0.459641
   0.026487   0.008836  -0.459641
   0.026487   0.008836  -0.459641
   0.026487   0.008836  -0.459641
   0.026487   0.008836  -0.459641
   0.026487   0.008836  -0.459641
   0.092032  -0.059561  -0.423174
   0.092032  -0.059561  -0.423174
   0.092032  -0.059561  -0.423174
   0.092032  -0.059561  -0.423174
   0.092032  -0.059561  -0.423174
   0.092032  -0.059561  -0.423174
   0.092032  -0.059561  -0.423174
   0.092032  -0.059561  -0.423174
   0.175812   0.103647  -0.383273
   0.175812   0.103647  -0.383273
   0.175812   0.103647  -0.383273
   0.175812   0.103647  -0.383273
   0.175812   0.103647  -0.383273
   0.175812   0.103647  -0.383273
   0.175812   0.103647  -0.383273
   0.175812   0.103647  -0.383273
  -0.228964  -0.026091  -0.012234
  -0.228964  -0.026091  -0.012234
  -0.228964  -0.026091  -0.012234
  -0.228964  -0.026091  -0.012234
  -0.228964  -0.026091  -0.012234
  -0.228964  -0.026091  -0.012234
  -0.228964  -0.026091  -0.012234
  -0.228964  -0.026091  -0.012234
   0.071110  -0.017492  -0.492745
   0.071110  -0.017492  -0.492745
   0.071110  -0.017492  -0.492745
   0.071110  -0.017492  -0.492745
   0.071110  -0.017492  -0.492745
   0.071110  -0.017492  -0.492745
   0.071110  -0.017492  -0.492745
   0.071110  -0.017492  -0.492745
  -0.088118   0.049727  -0.401108
  -0.088118   0.049727  -0.401108
  -0.088118   0.049727  -0.401108
  -0.088118   0.049727  -0.401108
  -0.088118   0.049727  -0.401108
  -0.088118   0.049727  -0.401108
  -0.088118   0.049727  -0.401108
  -0.088118   0.049727  -0.401108
  -0.051687   0.110940  -0.537898
  -0.051687   0.110940  -0.537898
  -0.051687   0.110940  -0.537898
  -0.051687   0.110940  -0.537898
  -0.051687   0.110940  -0.537898
  -0.051687   0.110940  -0.537898
  -0.051687   0.110940  -0.537898
  -0.051687   0.110940  -0.537898
  -0.016942   0.082249  -0.478107
  -0.016942   0.082249  -0.478107
  -0.016942   0.082249  -0.478107
  -0.016942   0.082249  -0.478107
  -0.016942   0.082249  -0.478107
  -0.016942   0.082249  -0.478107
  -0.016942   0.082249  -0.478107
  -0.016942   0.082249  -0.478107
   0.067992   0.049822  -0.484286
   0.067992   0.049822  -0.484286
   0.067992   0.049822  -0.484286
   0.067992   0.049822  -0.484286
   0.067992   0.049822  -0.484286
   0.067992   0.049822  -0.484286
   0.067992   0.049822  -0.484286
   0.067992   0.049822  -0.484286
   0.028595   0.083266  -0.449434
   0.028595   0.083266  -0.449434
   0.028595   0.083266  -0.449434
   0.028595   0.083266  -0.449434
   0.028595   0.083266  -0.449434
   0.028595   0.083266  -0.449434
   0.028595   0.083266  -0.449434
   0.028595   0.083266  -0.449434
   0.143782   0.046413  -0.461434
   0.143782   0.046413  -0.461434
   0.143782   0.046413  -0.461434
   0.143782   0.046413  -0.461434
   0.143782   0.046413  -0.461434
   0.143782   0.046413  -0.461434
   0.143782   0.046413  -0.461434
   0.143782   0.046413  -0.461434
   0.038039  -0.015316  -0.450779
   0.038039  -0.015316  -0.450779
   0.038039  -0.015316  -0.450779
   0.038039  -0.015316  -0.450779
   0.038039  -0.015316  -0.450779
   0.038039  -0.015316  -0.450779
   0.038039  -0.015316  -0.450779
   0.038039  -0.015316  -0.450779
  -0.064866   0.113201  -0.454355
  -0.064866   0.113201  -0.454355
  -0.064866   0.113201  -0.454355
  -0.064866   0.113201  -0.454355
  -0.064866   0.113201  -0.454355
  -0.064866   0.113201  -0.454355
  -0.064866   0.113201  -0.454355
  -0.064866   0.113201  -0.454355
  -0.049057  -0.004932  -0.463576
  -0.049057  -0.004932  -0.463576
  -0.049057  -0.004932  -0.463576
  -0.049057  -0.004932  -0.463576
  -0.049057  -0.004932  -0.463576
  -0.049057  -0.004932  -0.463576
  -0.049057  -0.004932  -0.463576
  -0.049057  -0.004932  -0.463576
   0.048438   0.101868  -0.512999
   0.048438   0.101868  -0.512999
   0.048438   0.101868  -0.512999
   0.048438   0.101868  -0.512999
   0.048438   0.101868  -0.512999
   0.048438   0.101868  -0.512999
   0.048438   0.101868  -0.512999
   0.048438   0.101868  -0.512999
   0.034188  -0.043925  -0.456442
   0.034188  -0.043925  -0.456442
   0.034188  -0.043925  -0.456442
   0.034188  -0.043925  -0.456442
   0.034188  -0.043925  -0.456442
   0.034188  -0.043925  -0.456442
   0.034188  -0.043925  -0.456442
   0.034188  -0.043925  -0.456442
  -0.008472   0.015859  -0.558270
  -0.008472   0.015859  -0.558270
  -0.008472   0.015859  -0.558270