# vtk DataFile Version 2.0
Startpositionen
ASCII
DATASET POLYDATA
 POINTS         6744  float

   0.1669   0.3537   0.0453
   0.0641   0.3154   0.0448
   0.1024   0.2127   0.0445
   0.2051   0.2510   0.0450
   0.1668   0.3536   0.0743
   0.0640   0.3153   0.0738
   0.1023   0.2126   0.0735
   0.2050   0.2509   0.0740
   0.1767   0.2892   0.1046
   0.1808   0.2364   0.1039
   0.0722   0.2278   0.1034
   0.0680   0.2806   0.1042
   0.1767   0.2896   0.0744
   0.1809   0.2368   0.0737
   0.0723   0.2282   0.0733
   0.0681   0.2810   0.0740
   0.4053   0.0493   0.0444
   0.5019   0.0088   0.0455
   0.5403   0.1005   0.0462
   0.4438   0.1410   0.0451
   0.4049   0.0492   0.0739
   0.5015   0.0087   0.0749
   0.5400   0.1004   0.0757
   0.4434   0.1410   0.0746
   0.5546   0.1079   0.0596
   0.5561   0.1279   0.1311
   0.5636   0.0269   0.1592
   0.5620   0.0069   0.0877
   0.5831   0.1097   0.0585
   0.5847   0.1297   0.1299
   0.5922   0.0287   0.1580
   0.5906   0.0087   0.0866
   0.6640   0.0767   0.1126
   0.6860   0.1042   0.0595
   0.7658   0.0491   0.0640
   0.7437   0.0215   0.1171
   0.6503   0.0555   0.0960
   0.6724   0.0831   0.0429
   0.7521   0.0279   0.0474
   0.7301   0.0004   0.1005
   1.2294   0.1000   0.0752
   1.0916   0.0440   0.0748
   1.0561   0.1314   0.0734
   1.1939   0.1874   0.0738
   1.2297   0.0997   0.0461
   1.0918   0.0437   0.0458
   1.0563   0.1311   0.0444
   1.1942   0.1871   0.0448
   1.1965   0.1075   0.1014
   1.1436   0.1430   0.1218
   1.1962   0.2173   0.1289
   1.2491   0.1818   0.1085
   1.1905   0.1143   0.0741
   1.1377   0.1498   0.0945
   1.1902   0.2241   0.1016
   1.2431   0.1886   0.0812
   1.2998   0.0998   0.1338
   1.3089   0.0732   0.0601
   1.3840   0.0181   0.0892
   1.3749   0.0448   0.1629
   1.2812   0.0775   0.1396
   1.2903   0.0508   0.0658
   1.3654  -0.0042   0.0950
   1.3563   0.0225   0.1687
   1.6054   0.1515   0.0457
   1.7106   0.1285   0.0450
   1.7328   0.2304   0.0443
   1.6276   0.2534   0.0450
   1.6056   0.1517   0.0758
   1.7108   0.1287   0.0751
   1.7331   0.2306   0.0744
   1.6278   0.2535   0.0751
   0.3033   0.0665   0.0694
   0.1969   0.1547   0.0744
   0.2518   0.2185   0.1182
   0.3582   0.1302   0.1132
   0.3117   0.0782   0.0418
   0.2053   0.1664   0.0469
   0.2602   0.2302   0.0906
   0.3666   0.1419   0.0856
   0.2123   0.2759   0.0450
   0.2558   0.1861   0.0438
   0.3448   0.2293   0.0466
   0.3012   0.3190   0.0477
   0.2117   0.2752   0.0745
   0.2552   0.1855   0.0734
   0.3442   0.2286   0.0762
   0.3006   0.3183   0.0773
   0.6095   0.3734   0.0624
   0.5101   0.3164   0.0517
   0.5391   0.2516   0.1276
   0.6385   0.3086   0.1383
   0.5965   0.3922   0.0834
   0.4970   0.3351   0.0727
   0.5261   0.2703   0.1486
   0.6255   0.3274   0.1593
   0.8271   0.2586   0.0753
   0.6879   0.2991   0.0751
   0.7161   0.3958   0.0788
   0.8552   0.3553   0.0790
   0.8274   0.2596   0.0450
   0.6883   0.3001   0.0448
   0.7164   0.3968   0.0485
   0.8556   0.3563   0.0487
   0.8433   0.3539   0.0922
   0.7843   0.3838   0.0597
   0.7451   0.4112   0.1562
   0.8041   0.3813   0.1887
   0.8574   0.3799   0.0905
   0.7984   0.4098   0.0581
   0.7592   0.4372   0.1545
   0.8181   0.4073   0.1870
   0.9646   0.2696   0.1145
   0.9125   0.2711   0.0968
   0.9193   0.3740   0.0853
   0.9714   0.3725   0.1030
   0.9741   0.2658   0.0862
   0.9221   0.2672   0.0685
   0.9289   0.3702   0.0569
   0.9810   0.3687   0.0746
   1.0492   0.2369   0.0725
   1.1083   0.2327   0.0920
   1.0945   0.1366   0.1128
   1.0354   0.1409   0.0933
   1.0576   0.2298   0.0453
   1.1167   0.2256   0.0647
   1.1030   0.1295   0.0855
   1.0439   0.1337   0.0661
   1.3483   0.2027   0.0454
   1.4373   0.1498   0.0456
   1.4851   0.2301   0.0448
   1.3960   0.2830   0.0447
   1.3483   0.2030   0.0740
   1.4374   0.1500   0.0742
   1.4851   0.2303   0.0734
   1.3961   0.2833   0.0733
   1.5263   0.2621   0.0578
   1.5924   0.2559   0.0740
   1.5671   0.2099   0.1593
   1.5011   0.2161   0.1431
   1.5272   0.2363   0.0442
   1.5933   0.2302   0.0604
   1.5680   0.1842   0.1458
   1.5020   0.1904   0.1295
   0.2070   0.4924   0.1443
   0.3115   0.5387   0.1896
   0.3218   0.5976   0.1057
   0.2173   0.5513   0.0604
   0.1917   0.5140   0.1576
   0.2962   0.5603   0.2029
   0.3065   0.6192   0.1190
   0.2020   0.5729   0.0737
   0.3871   0.3133   0.1452
   0.4155   0.3611   0.0417
   0.3481   0.4290   0.0546
   0.3197   0.3813   0.1580
   0.4082   0.3316   0.1594
   0.4366   0.3793   0.0560
   0.3692   0.4473   0.0688
   0.3408   0.3995   0.1722
   0.5957   0.3739   0.1420
   0.6453   0.4268   0.0481
   0.5713   0.4881   0.0435
   0.5217   0.4352   0.1375
   0.6109   0.3936   0.1612
   0.6605   0.4466   0.0672
   0.5865   0.5079   0.0627
   0.5369   0.4549   0.1567
   0.8185   0.6688   0.0756
   0.9370   0.5821   0.0910
   0.8732   0.4979   0.1082
   0.7547   0.5845   0.0928
   0.8182   0.6628   0.0452
   0.9367   0.5762   0.0607
   0.8728   0.4919   0.0779
   0.7543   0.5786   0.0624
   0.7981   0.4117   0.0680
   0.7332   0.3964   0.0752
   0.7302   0.4459   0.1517
   0.7950   0.4612   0.1444
   0.7908   0.4353   0.0524
   0.7260   0.4200   0.0597
   0.7229   0.4695   0.1361
   0.7878   0.4848   0.1289
   1.0745   0.3273   0.0458
   0.9910   0.3679   0.0451
   0.9514   0.2863   0.0445
   1.0349   0.2457   0.0452
   1.0743   0.3272   0.0753
   0.9908   0.3678   0.0746
   0.9511   0.2862   0.0741
   1.0346   0.2456   0.0747
   1.2202   0.4533   0.0503
   1.1924   0.3875   0.0581
   1.1810   0.4032   0.1496
   1.2088   0.4690   0.1418
   1.1935   0.4640   0.0451
   1.1657   0.3982   0.0529
   1.1542   0.4139   0.1445
   1.1821   0.4797   0.1367
   1.2979   0.5075   0.1717
   1.2174   0.5140   0.1643
   1.2220   0.4690   0.0752
   1.3025   0.4625   0.0826
   1.2945   0.4801   0.1853
   1.2140   0.4866   0.1779
   1.2185   0.4416   0.0889
   1.2990   0.4351   0.0963
   1.6989   0.5784   0.0434
   1.6226   0.6063   0.0773
   1.5935   0.5075   0.0931
   1.6698   0.4796   0.0592
   1.7118   0.5792   0.0719
   1.6355   0.6071   0.1058
   1.6064   0.5082   0.1216
   1.6827   0.4803   0.0877
   0.0467   0.4962   0.0571
   0.0233   0.4184   0.0484
   0.0670   0.3963   0.1283
   0.0904   0.4741   0.1370
   0.0224   0.5018   0.0720
  -0.0010   0.4240   0.0632
   0.0427   0.4019   0.1432
   0.0661   0.4797   0.1519
   0.4190   0.8060   0.0495
   0.3963   0.7230   0.1423
   0.3790   0.8023   0.2090
   0.4017   0.8853   0.1162
   0.3896   0.8058   0.0421
   0.3668   0.7228   0.1350
   0.3495   0.8021   0.2016
   0.3723   0.8851   0.1088
   0.5973   0.4980   0.0820
   0.6809   0.6130   0.0748
   0.7569   0.5577   0.0760
   0.6733   0.4428   0.0831
   0.5967   0.4966   0.0514
   0.6803   0.6115   0.0442
   0.7563   0.5563   0.0454
   0.6727   0.4413   0.0525
   0.6060   0.6970   0.0804
   0.6557   0.7593   0.0452
   0.5716   0.8267   0.0459
   0.5219   0.7645   0.0811
   0.6137   0.7064   0.1080
   0.6634   0.7686   0.0727
   0.5793   0.8361   0.0734
   0.5296   0.7738   0.1086
   0.8871   0.7243   0.1898
   0.9783   0.8009   0.1449
   0.9611   0.7656   0.0498
   0.8699   0.6890   0.0948
   0.8675   0.7451   0.1856
   0.9588   0.8218   0.1407
   0.9416   0.7864   0.0456
   0.8503   0.7098   0.0906
   1.2333   0.6179   0.1209
   1.1855   0.4959   0.1421
   1.1070   0.5191   0.0981
   1.1548   0.6411   0.0770
   1.2448   0.6090   0.0956
   1.1970   0.4870   0.1168
   1.1185   0.5102   0.0728
   1.1663   0.6322   0.0517
   1.0993   0.6477   0.0600
   1.1511   0.6930   0.0608
   1.1828   0.6553   0.1502
   1.1309   0.6100   0.1494
   1.1163   0.6284   0.0459
   1.1682   0.6738   0.0466
   1.1998   0.6361   0.1361
   1.1480   0.5908   0.1353
   1.3009   0.5759   0.1155
   1.3798   0.5911   0.0752
   1.3466   0.6906   0.0476
   1.2677   0.6754   0.0878
   1.3121   0.5869   0.1415
   1.3910   0.6021   0.1013
   1.3578   0.7015   0.0736
   1.2789   0.6864   0.1139
   1.7283   0.6744   0.0446
   1.6406   0.7298   0.0448
   1.5886   0.6473   0.0453
   1.6763   0.5920   0.0451
   1.7285   0.6745   0.0754
   1.6407   0.7299   0.0756
   1.5887   0.6474   0.0762
   1.6765   0.5921   0.0759
   0.2262   0.9245   0.0933
   0.1842   0.8124   0.0941
   0.2352   0.7940   0.1829
   0.2772   0.9061   0.1821
   0.2016   0.9339   0.1093
   0.1596   0.8218   0.1101
   0.2106   0.8033   0.1989
   0.2526   0.9154   0.1981
   0.2362   0.7748   0.0451
   0.2581   0.6741   0.0445
   0.3482   0.6936   0.0452
   0.3264   0.7943   0.0458
   0.2360   0.7746   0.0738
   0.2579   0.6739   0.0732
   0.3480   0.6934   0.0739
   0.3262   0.7941   0.0745
   0.5950   0.9891   0.0831
   0.4941   0.9447   0.0570
   0.5230   0.8551   0.0977
   0.6238   0.8995   0.1238
   0.5840   0.9980   0.1105
   0.4831   0.9537   0.0844
   0.5119   0.8641   0.1252
   0.6128   0.9084   0.1513
   0.7510   0.7606   0.1577
   0.7648   0.8337   0.0674
   0.6682   0.8549   0.0697
   0.6544   0.7818   0.1600
   0.7566   0.7842   0.1776
   0.7704   0.8573   0.0873
   0.6738   0.8784   0.0897
   0.6600   0.8054   0.1799
   0.8133   0.9583   0.0700
   0.7981   1.0128   0.1065
   0.9030   1.0433   0.1047
   0.9182   0.9889   0.0683
   0.8086   0.9732   0.0458
   0.7933   1.0277   0.0823
   0.8982   1.0583   0.0805
   0.9135   1.0038   0.0440
   1.1086   1.0519   0.1555
   1.1356   1.0160   0.0427
   1.2407   1.0073   0.0706
   1.2137   1.0432   0.1834
   1.1039   1.0220   0.1639
   1.1309   0.9861   0.0511
   1.2360   0.9774   0.0789
   1.2090   1.0134   0.1918
   1.2351   0.7319   0.1037
   1.1739   0.7142   0.0473
   1.1308   0.6627   0.1102
   1.1920   0.6804   0.1666
   1.2198   0.7557   0.1128
   1.1586   0.7380   0.0564
   1.1156   0.6865   0.1193
   1.1767   0.7042   0.1757
   1.5577   0.8564   0.0844
   1.6605   0.7601   0.0890
   1.5973   0.6930   0.0977
   1.4944   0.7894   0.0931
   1.5564   0.8537   0.0542
   1.6593   0.7573   0.0588
   1.5960   0.6903   0.0676
   1.4932   0.7866   0.0629
   1.8121   0.9133   0.0911
[...]
POINT_DATA  6744
VECTORS velocity float
  -0.013850   0.009211  -0.010753
  -0.013850   0.009211  -0.010753
  -0.013850   0.009211  -0.010753
  -0.013850   0.009211  -0.010753
  -0.013850   0.009211  -0.010753
  -0.013850   0.009211  -0.010753
  -0.013850   0.009211  -0.010753
  -0.013850   0.009211  -0.010753
  -0.001541   0.012348  -0.014341
  -0.001541   0.012348  -0.014341
  -0.001541   0.012348  -0.014341
  -0.001541   0.012348  -0.014341
  -0.001541   0.012348  -0.014341
  -0.001541   0.012348  -0.014341
  -0.001541   0.012348  -0.014341
  -0.001541   0.012348  -0.014341
  -0.002867  -0.018246   0.008251
  -0.002867  -0.018246   0.008251
  -0.002867  -0.018246   0.008251
  -0.002867  -0.018246   0.008251
  -0.002867  -0.018246   0.008251
  -0.002867  -0.018246   0.008251
  -0.002867  -0.018246   0.008251
  -0.002867  -0.018246   0.008251
  -0.005668  -0.011537  -0.030961
  -0.005668  -0.011537  -0.030961
  -0.005668  -0.011537  -0.030961
  -0.005668  -0.011537  -0.030961
  -0.005668  -0.011537  -0.030961
  -0.005668  -0.011537  -0.030961
  -0.005668  -0.011537  -0.030961
  -0.005668  -0.011537  -0.030961
   0.017534   0.035281  -0.033036
   0.017534   0.035281  -0.033036
   0.017534   0.035281  -0.033036
   0.017534   0.035281  -0.033036
   0.017534   0.035281  -0.033036
   0.017534   0.035281  -0.033036
   0.017534   0.035281  -0.033036
   0.017534   0.035281  -0.033036
  -0.017401   0.075662   0.037236
  -0.017401   0.075662   0.037236
  -0.017401   0.075662   0.037236
  -0.017401   0.075662   0.037236
  -0.017401   0.075662   0.037236
  -0.017401   0.075662   0.037236
  -0.017401   0.075662   0.037236
  -0.017401   0.075662   0.037236
  -0.113065   0.106511  -0.087484
  -0.113065   0.106511  -0.087484
  -0.113065   0.106511  -0.087484
  -0.113065   0.106511  -0.087484
  -0.113065   0.106511  -0.087484
  -0.113065   0.106511  -0.087484
  -0.113065   0.106511  -0.087484
  -0.113065   0.106511  -0.087484
  -0.044717   0.076958   0.080375
  -0.044717   0.076958   0.080375
  -0.044717   0.076958   0.080375
  -0.044717   0.076958   0.080375
  -0.044717   0.076958   0.080375
  -0.044717   0.076958   0.080375
  -0.044717   0.076958   0.080375
  -0.044717   0.076958   0.080375
  -0.019119  -0.016019   0.052203
  -0.019119  -0.016019   0.052203
  -0.019119  -0.016019   0.052203
  -0.019119  -0.016019   0.052203
  -0.019119  -0.016019   0.052203
  -0.019119  -0.016019   0.052203
  -0.019119  -0.016019   0.052203
  -0.019119  -0.016019   0.052203
   0.070263   0.143061   0.038246
   0.070263   0.143061   0.038246
   0.070263   0.143061   0.038246
   0.070263   0.143061   0.038246
   0.070263   0.143061   0.038246
   0.070263   0.143061   0.038246
   0.070263   0.143061   0.038246
   0.070263   0.143061   0.038246
  -0.010717   0.003881   0.134079
  -0.010717   0.003881   0.134079
  -0.010717   0.003881   0.134079
  -0.010717   0.003881   0.134079
  -0.010717   0.003881   0.134079
  -0.010717   0.003881   0.134079
  -0.010717   0.003881   0.134079
  -0.010717   0.003881   0.134079
   0.087520   0.009934  -0.182149
   0.087520   0.009934  -0.182149
   0.087520   0.009934  -0.182149
   0.087520   0.009934  -0.182149
   0.087520   0.009934  -0.182149
   0.087520   0.009934  -0.182149
   0.087520   0.009934  -0.182149
   0.087520   0.009934  -0.182149
   0.021993   0.035700  -0.099914
   0.021993   0.035700  -0.099914
   0.021993   0.035700  -0.099914
   0.021993   0.035700  -0.099914
   0.021993   0.035700  -0.099914
   0.021993   0.035700  -0.099914
   0.021993   0.035700  -0.099914
   0.021993   0.035700  -0.099914
  -0.028689   0.019085  -0.334768
  -0.028689   0.019085  -0.334768
  -0.028689   0.019085  -0.334768
  -0.028689   0.019085  -0.334768
  -0.028689   0.019085  -0.334768
  -0.028689   0.019085  -0.334768
  -0.028689   0.019085  -0.334768
  -0.028689   0.019085  -0.334768
  -0.046912   0.012498  -0.023528
  -0.046912   0.012498  -0.023528
  -0.046912   0.012498  -0.023528
  -0.046912   0.012498  -0.023528
  -0.046912   0.012498  -0.023528
  -0.046912   0.012498  -0.023528
  -0.046912   0.012498  -0.023528
  -0.046912   0.012498  -0.023528
  -0.075729  -0.135828   0.051589
  -0.075729  -0.135828   0.051589
  -0.075729  -0.135828   0.051589
  -0.075729  -0.135828   0.051589
  -0.075729  -0.135828   0.051589
  -0.075729  -0.135828   0.051589
  -0.075729  -0.135828   0.051589
  -0.075729  -0.135828   0.051589
   0.000048   0.001859   0.001833
   0.000048   0.001859   0.001833
   0.000048   0.001859   0.001833
   0.000048   0.001859   0.001833
   0.000048   0.001859   0.001833
   0.000048   0.001859   0.001833
   0.000048   0.001859   0.001833
   0.000048   0.001859   0.001833
   0.055052  -0.081505  -0.331549
   0.055052  -0.081505  -0.331549
   0.055052  -0.081505  -0.331549
   0.055052  -0.081505  -0.331549
   0.055052  -0.081505  -0.331549
   0.055052  -0.081505  -0.331549
   0.055052  -0.081505  -0.331549
   0.055052  -0.081505  -0.331549
   0.228151   0.004526  -0.028636
   0.228151   0.004526  -0.028636
   0.228151   0.004526  -0.028636
   0.228151   0.004526  -0.028636
   0.228151   0.004526  -0.028636
   0.228151   0.004526  -0.028636
   0.228151   0.004526  -0.028636
   0.228151   0.004526  -0.028636
  -0.217388   0.038937  -0.205224
  -0.217388   0.038937  -0.205224
  -0.217388   0.038937  -0.205224
  -0.217388   0.038937  -0.205224
  -0.217388   0.038937  -0.205224
  -0.217388   0.038937  -0.205224
  -0.217388   0.038937  -0.205224
  -0.217388   0.038937  -0.205224
   0.106149  -0.046486   0.101071
   0.106149  -0.046486   0.101071
   0.106149  -0.046486   0.101071
   0.106149  -0.046486   0.101071
   0.106149  -0.046486   0.101071
   0.106149  -0.046486   0.101071
   0.106149  -0.046486   0.101071
   0.106149  -0.046486   0.101071
   0.007758   0.076880   0.415427
   0.007758   0.076880   0.415427
   0.007758   0.076880   0.415427
   0.007758   0.076880   0.415427
   0.007758   0.076880   0.415427
   0.007758   0.076880   0.415427
   0.007758   0.076880   0.415427
   0.007758   0.076880   0.415427
   0.002434   0.107519  -0.108837
   0.002434   0.107519  -0.108837
   0.002434   0.107519  -0.108837
   0.002434   0.107519  -0.108837
   0.002434   0.107519  -0.108837
   0.002434   0.107519  -0.108837
   0.002434   0.107519  -0.108837
   0.002434   0.107519  -0.108837
   0.006351  -0.009226  -0.032701
   0.006351  -0.009226  -0.032701
   0.006351  -0.009226  -0.032701
   0.006351  -0.009226  -0.032701
   0.006351  -0.009226  -0.032701
   0.006351  -0.009226  -0.032701
   0.006351  -0.009226  -0.032701
   0.006351  -0.009226  -0.032701
   0.043669  -0.060174   0.007700
   0.043669  -0.060174   0.007700
   0.043669  -0.060174   0.007700
   0.043669  -0.060174   0.007700
   0.043669  -0.060174   0.007700
   0.043669  -0.060174   0.007700
   0.043669  -0.060174   0.007700
   0.043669  -0.060174   0.007700
  -0.225656   0.043057   0.020785
  -0.225656   0.043057   0.020785
  -0.225656   0.043057   0.020785
  -0.225656   0.043057   0.020785
  -0.225656   0.043057   0.020785
  -0.225656   0.043057   0.020785
  -0.225656   0.043057   0.020785
  -0.225656   0.043057   0.020785
  -0.065399  -0.025690  -0.120721
  -0.065399  -0.025690  -0.120721
  -0.065399  -0.025690  -0.120721
  -0.065399  -0.025690  -0.120721
  -0.065399  -0.025690  -0.120721
  -0.065399  -0.025690  -0.120721
  -0.065399  -0.025690  -0.120721
  -0.065399  -0.025690  -0.120721
   0.051186  -0.065931  -0.012282
   0.051186  -0.065931  -0.012282
   0.051186  -0.065931  -0.012282
   0.051186  -0.065931  -0.012282
   0.051186  -0.065931  -0.012282
   0.051186  -0.065931  -0.012282
   0.051186  -0.065931  -0.012282
   0.051186  -0.065931  -0.012282
  -0.078215   0.035348   0.085711
  -0.078215   0.035348   0.085711
  -0.078215   0.035348   0.085711
  -0.078215   0.035348   0.085711
  -0.078215   0.035348   0.085711
  -0.078215   0.035348   0.085711
  -0.078215   0.035348   0.085711
  -0.078215   0.035348   0.085711
   0.017831   0.005349   0.028889
   0.017831   0.005349   0.028889
   0.017831   0.005349   0.028889
   0.017831   0.005349   0.028889
   0.017831   0.005349   0.028889
   0.017831   0.005349   0.028889
   0.017831   0.005349   0.028889
   0.017831   0.005349   0.028889
  -0.067436  -0.115398  -0.104103
  -0.067436  -0.115398  -0.104103
  -0.067436  -0.115398  -0.104103
  -0.067436  -0.115398  -0.104103
  -0.067436  -0.115398  -0.104103
  -0.067436  -0.115398  -0.104103
  -0.067436  -0.115398  -0.104103
  -0.067436  -0.115398  -0.104103
  -0.173295  -0.125256  -0.117422
  -0.173295  -0.125256  -0.117422
  -0.173295  -0.125256  -0.117422
  -0.173295  -0.125256  -0.117422
  -0.173295  -0.125256  -0.117422
  -0.173295  -0.125256  -0.117422
  -0.173295  -0.125256  -0.117422
  -0.173295  -0.125256  -0.117422
   0.052106  -0.002552  -0.106320
   0.052106  -0.002552  -0.106320
   0.052106  -0.002552  -0.106320
   0.052106  -0.002552  -0.106320
   0.052106  -0.002552  -0.106320
   0.052106  -0.002552  -0.106320
   0.052106  -0.002552  -0.106320
   0.052106  -0.002552  -0.106320
   0.029672   0.018292  -0.000145
   0.029672   0.018292  -0.000145
   0.029672   0.018292  -0.000145
   0.029672   0.018292  -0.000145
   0.029672   0.018292  -0.000145
   0.029672   0.018292  -0.000145
   0.029672   0.018292  -0.000145
   0.029672   0.018292  -0.000145
  -0.088759  -0.203440  -0.235759
  -0.088759  -0.203440  -0.235759
  -0.088759  -0.203440  -0.235759
  -0.088759  -0.203440  -0.235759
  -0.088759  -0.203440  -0.235759
  -0.088759  -0.203440  -0.235759
  -0.088759  -0.203440  -0.235759
  -0.088759  -0.203440  -0.235759
   0.003729   0.050073   0.010785
   0.003729   0.050073   0.010785
   0.003729   0.050073   0.010785
   0.003729   0.050073   0.010785
   0.003729   0.050073   0.010785
   0.003729   0.050073   0.010785
   0.003729   0.050073   0.010785
   0.003729   0.050073   0.010785
   0.089843  -0.020371  -0.141163
   0.089843  -0.020371  -0.141163
   0.089843  -0.020371  -0.141163
   0.089843  -0.020371  -0.141163
   0.089843  -0.020371  -0.141163
   0.089843  -0.020371  -0.141163
   0.089843  -0.020371  -0.141163
   0.089843  -0.020371  -0.141163
   0.002500   0.003688  -0.014165
   0.002500   0.003688  -0.014165
   0.002500   0.003688  -0.014165
   0.002500   0.003688  -0.014165
   0.002500   0.003688  -0.014165
   0.002500   0.003688  -0.014165
   0.002500   0.003688  -0.014165
   0.002500   0.003688  -0.014165
   0.008883   0.127175  -0.176367
   0.008883   0.127175  -0.176367
   0.008883   0.127175  -0.176367
   0.008883   0.127175  -0.176367
   0.008883   0.127175  -0.176367
   0.008883   0.127175  -0.176367
   0.008883   0.127175  -0.176367
   0.008883   0.127175  -0.176367
  -0.289038  -0.092859   0.229814
  -0.289038  -0.092859   0.229814
  -0.289038  -0.092859   0.229814
  -0.289038  -0.092859   0.229814
  -0.289038  -0.092859   0.229814
  -0.289038  -0.092859   0.229814
  -0.289038  -0.092859   0.229814
  -0.289038  -0.092859   0.229814
  -0.013215   0.066782   0.045201
  -0.013215   0.066782   0.045201
  -0.013215   0.066782   0.045201
  -0.013215   0.066782   0.045201
  -0.013215   0.066782   0.045201
  -0.013215   0.066782   0.045201
  -0.013215   0.066782   0.045201
  -0.013215   0.066782   0.045201
   0.199347  -0.152897  -0.032750
   0.199347  -0.152897  -0.032750
   0.199347  -0.152897  -0.032750
   0.199347  -0.152897  -0.032750
   0.199347  -0.152897  -0.032750
   0.199347  -0.152897  -0.032750
   0.199347  -0.152897  -0.032750
   0.199347  -0.152897  -0.032750
   0.004981  -0.023732  -0.179897
   0.004981  -0.023732  -0.179897
   0.004981  -0.023732  -0.179897
   0.004981  -0.023732  -0.179897
   0.004981  -0.023732  -0.179897
   0.004981  -0.023732  -0.179897
   0.004981  -0.023732  -0.179897
   0.004981  -0.023732  -0.179897
  -0.043395   0.093522  -0.165253
  -0.043395   0.093522  -0.165253
  -0.043395   0.093522  -0.165253
  -0.043395   0.093522  -0.165253
  -0.043395   0.093522  -0.165253
  -0.043395   0.093522  -0.165253
  -0.043395   0.093522  -0.165253
  -0.043395   0.093522  -0.165253
  -0.050897   0.167530   0.022317
  -0.050897   0.167530   0.022317
  -0.050897   0.167530   0.022317
  -0.050897   0.167530   0.022317
  -0.050897   0.167530   0.022317
  -0.050897   0.167530   0.022317
  -0.050897   0.167530   0.022317
  -0.050897   0.167530   0.022317
  -0.016789  -0.013718  -0.273253
  -0.016789  -0.013718  -0.273253
  -0.016789  -0.013718  -0.273253
  -0.016789  -0.013718  -0.273253
  -0.016789  -0.013718  -0.273253
  -0.016789  -0.013718  -0.273253
  -0.016789  -0.013718  -0.273253
  -0.016789  -0.013718  -0.273253
  -0.000032  -0.000764   0.002476
  -0.000032  -0.000764   0.002476
  -0.000032  -0.000764   0.002476
  -0.000032  -0.000764   0.002476
  -0.000032  -0.000764   0.002476
  -0.000032  -0.000764   0.002476
  -0.000032  -0.000764   0.002476
  -0.000032  -0.000764   0.002476
  -0.006019   0.040249  -0.104022
  -0.006019   0.040249  -0.104022
  -0.006019   0.040249  -0.104022
  -0.006019   0.040249  -0.104022
  -0.006019   0.040249  -0.104022
  -0.006019   0.040249  -0.104022
  -0.006019   0.040249  -0.104022
  -0.006019   0.040249  -0.104022
   0.003768  -0.003429  -0.018333
   0.003768  -0.003429  -0.018333
   0.003768  -0.003429  -0.018333
   0.003768  -0.003429  -0.018333
   0.003768  -0.003429  -0.018333
   0.003768  -0.003429  -0.018333
   0.003768  -0.003429  -0.018333
   0.003768  -0.003429  -0.018333
   0.163602   0.223339  -0.077883
   0.163602   0.223339  -0.077883
   0.163602   0.223339  -0.077883
   0.163602   0.223339  -0.077883
   0.163602   0.223339  -0.077883
   0.163602   0.223339  -0.077883
   0.163602   0.223339  -0.077883
   0.163602   0.223339  -0.077883
   0.053316   0.052645  -0.023369
   0.053316   0.052645  -0.023369
   0.053316   0.052645  -0.023369
   0.053316   0.052645  -0.023369
   0.053316   0.052645  -0.023369
   0.053316   0.052645  -0.023369
   0.053316   0.052645  -0.023369
   0.053316   0.052645  -0.023369
   0.008973  -0.068357   0.038119
   0.008973  -0.068357   0.038119
   0.008973  -0.068357   0.038119
   0.008973  -0.068357   0.038119
   0.008973  -0.068357   0.038119
   0.008973  -0.068357   0.038119
   0.008973  -0.068357   0.038119
   0.008973  -0.068357   0.038119
   0.111521   0.052820  -0.032397
   0.111521   0.052820  -0.032397
   0.111521   0.052820  -0.032397
   0.111521   0.052820  -0.032397
   0.111521   0.052820  -0.032397
   0.111521   0.052820  -0.032397
   0.111521   0.052820  -0.032397
   0.111521   0.052820  -0.032397
  -0.079288  -0.149748  -0.462981
  -0.079288  -0.149748  -0.462981
  -0.079288  -0.149748  -0.462981
  -0.079288  -0.149748  -0.462981
  -0.079288  -0.149748  -0.462981
  -0.079288  -0.149748  -0.462981
  -0.079288  -0.149748  -0.462981
  -0.079288  -0.149748  -0.462981
  -0.012239   0.097156   0.008477
  -0.012239   0.097156   0.008477
  -0.012239   0.097156   0.008477
  -0.012239   0.097156   0.008477
  -0.012239   0.097156   0.008477
  -0.012239   0.097156   0.008477
  -0.012239   0.097156   0.008477
  -0.012239   0.097156   0.008477
   0.020526   0.044836  -0.128790
   0.020526   0.044836  -0.128790
   0.020526   0.044836  -0.128790
   0.020526   0.044836  -0.128790
   0.020526   0.044836  -0.128790
   0.020526   0.044836  -0.128790
   0.020526   0.044836  -0.128790
   0.020526   0.044836  -0.128790
   0.113155  -0.154900  -0.197548
   0.113155  -0.154900  -0.197548
   0.113155  -0.154900  -0.197548
   0.113155  -0.154900  -0.197548
   0.113155  -0.154900  -0.197548
   0.113155  -0.154900  -0.197548
   0.113155  -0.154900  -0.197548
   0.113155  -0.154900  -0.197548
   0.161072   0.217230  -0.073523
   0.161072   0.217230  -0.073523
   0.161072   0.217230  -0.073523
   0.161072   0.217230  -0.073523
   0.161072   0.217230  -0.073523
   0.161072   0.217230  -0.073523
   0.161072   0.217230  -0.073523
   0.161072   0.217230  -0.073523
   0.171606  -0.193561   0.113017
   0.171606  -0.193561   0.113017
   0.171606  -0.193561   0.113017
   0.171606  -0.193561   0.113017
   0.171606  -0.193561   0.113017
   0.171606  -0.193561   0.113017
   0.171606  -0.193561   0.113017
   0.171606  -0.193561   0.113017
  -0.098548   0.048932  -0.213645
  -0.098548   0.048932  -0.213645
  -0.098548   0.048932  -0.213645
  -0.098548   0.048932  -0.213645
  -0.098548   0.048932  -0.213645
  -0.098548   0.048932  -0.213645
  -0.098548   0.048932  -0.213645
  -0.098548   0.048932  -0.213645
  -0.010228   0.008072  -0.014314
  -0.010228   0.008072  -0.014314
  -0.010228   0.008072  -0.014314
  -0.010228   0.008072  -0.014314
  -0.010228   0.008072  -0.014314
  -0.010228   0.008072  -0.014314
  -0.010228   0.008072  -0.014314
  -0.010228   0.008072  -0.014314
  -0.002186  -0.002996  -0.003163
  -0.002186  -0.002996  -0.003163
  -0.002186  -0.002996  -0.003163
  -0.002186  -0.002996  -0.003163
  -0.002186  -0.002996  -0.003163
  -0.002186  -0.002996  -0.003163
  -0.002186  -0.002996  -0.003163
  -0.002186  -0.002996  -0.003163
  -0.139265   0.168941   0.208231
  -0.139265   0.168941   0.208231
  -0.139265   0.168941   0.208231
  -0.139265   0.168941   0.208231
  -0.139265   0.168941   0.208231
  -0.139265   0.168941   0.208231
  -0.139265   0.168941   0.208231
  -0.139265   0.168941   0.208231
  -0.083695   0.021107  -0.077390
  -0.083695   0.021107  -0.077390
  -0.083695   0.021107  -0.077390
  -0.083695   0.021107  -0.077390
  -0.083695   0.021107  -0.077390
  -0.083695   0.021107  -0.077390
  -0.083695   0.021107  -0.077390
  -0.083695   0.021107  -0.077390
   0.167481   0.004489  -0.228061
   0.167481   0.004489  -0.228061
   0.167481   0.004489  -0.228061
   0.167481   0.004489  -0.228061
   0.167481   0.004489  -0.228061
   0.167481   0.004489  -0.228061
   0.167481   0.004489  -0.228061
   0.167481   0.004489  -0.228061
   0.115078  -0.118281  -0.499146
   0.115078  -0.118281  -0.499146
   0.115078  -0.118281  -0.499146
   0.115078  -0.118281  -0.499146
   0.115078  -0.118281  -0.499146
   0.115078  -0.118281  -0.499146
   0.115078  -0.118281  -0.499146
   0.115078  -0.118281  -0.499146
   0.101298   0.194075  -0.182567
   0.101298   0.194075  -0.182567
   0.101298   0.194075  -0.182567
   0.101298   0.194075  -0.182567
   0.101298   0.194075  -0.182567
   0.101298   0.194075  -0.182567
   0.101298   0.194075  -0.182567
   0.101298   0.194075  -0.182567
  -0.161924  -0.002979  -0.123985
  -0.161924  -0.002979  -0.123985
  -0.161924  -0.002979  -0.123985
  -0.161924  -0.002979  -0.123985
  -0.161924  -0.002979  -0.123985
  -0.161924  -0.002979  -0.123985
  -0.161924  -0.002979  -0.123985
  -0.161924  -0.002979  -0.123985
  -0.059869  -0.034635  -0.416947
  -0.059869  -0.034635  -0.416947
  -0.059869  -0.034635  -0.416947
  -0.059869  -0.034635  -0.416947
  -0.059869  -0.034635  -0.416947
  -0.059869  -0.034635  -0.416947
  -0.059869  -0.034635  -0.416947
  -0.059869  -0.034635  -0.416947
  -0.129437   0.117957  -0.294711
  -0.129437   0.117957  -0.294711
  -0.129437   0.117957  -0.294711
  -0.129437   0.117957  -0.294711
  -0.129437   0.117957  -0.294711
  -0.129437   0.117957  -0.294711
  -0.129437   0.117957  -0.294711
  -0.129437   0.117957  -0.294711
   0.081590   0.162252  -0.158395
   0.081590   0.162252  -0.158395
   0.081590   0.162252  -0.158395
   0.081590   0.162252  -0.158395
   0.081590   0.162252  -0.158395
   0.081590   0.162252  -0.158395
   0.081590   0.162252  -0.158395
   0.081590   0.162252  -0.158395
   0.204617   0.029450  -0.101223
   0.204617   0.029450  -0.101223
   0.204617   0.029450  -0.101223
   0.204617   0.029450  -0.101223
   0.204617   0.029450  -0.101223
   0.204617   0.029450  -0.101223
   0.204617   0.029450  -0.101223
   0.204617   0.029450  -0.101223
   0.015118  -0.019424  -0.569401
   0.015118  -0.019424  -0.569401
   0.015118  -0.019424  -0.569401
   0.015118  -0.019424  -0.569401
   0.015118  -0.019424  -0.569401
   0.015118  -0.019424  -0.569401
   0.015118  -0.019424  -0.569401
   0.015118  -0.019424  -0.569401
   0.121278   0.000708   0.156022
   0.121278   0.000708   0.156022
   0.121278   0.000708   0.156022