# vtk DataFile Version 2.0
Startpositionen
ASCII
DATASET POLYDATA
 POINTS         6744  float

   0.1686   0.3528   0.0475
   0.0639   0.3206   0.0533
   0.0960   0.2159   0.0513
   0.2007   0.2481   0.0455
   0.1702   0.3528   0.0764
   0.0655   0.3206   0.0822
   0.0976   0.2158   0.0802
   0.2023   0.2480   0.0744
   0.1740   0.2924   0.1162
   0.1771   0.2395   0.1166
   0.0685   0.2331   0.1117
   0.0654   0.2860   0.1114
   0.1754   0.2923   0.0861
   0.1785   0.2394   0.0865
   0.0698   0.2330   0.0816
   0.0667   0.2859   0.0812
   0.4008   0.0529   0.0460
   0.4942   0.0054   0.0467
   0.5393   0.0940   0.0451
   0.4460   0.1415   0.0444
   0.4009   0.0534   0.0755
   0.4942   0.0059   0.0762
   0.5393   0.0945   0.0746
   0.4460   0.1421   0.0739
   0.5532   0.1012   0.0471
   0.5554   0.1151   0.1200
   0.5635   0.0121   0.1395
   0.5613  -0.0019   0.0666
   0.5817   0.1032   0.0459
   0.5840   0.1171   0.1187
   0.5921   0.0141   0.1382
   0.5899   0.0002   0.0654
   0.6716   0.0807   0.1149
   0.6910   0.1066   0.0600
   0.7697   0.0498   0.0610
   0.7502   0.0238   0.1159
   0.6565   0.0596   0.0995
   0.6760   0.0855   0.0446
   0.7546   0.0287   0.0456
   0.7352   0.0027   0.1006
   1.2292   0.1192   0.0877
   1.0977   0.0496   0.0835
   1.0541   0.1326   0.0728
   1.1856   0.2022   0.0770
   1.2315   0.1167   0.0589
   1.1000   0.0471   0.0547
   1.0564   0.1301   0.0440
   1.1879   0.1997   0.0482
   1.1947   0.1365   0.1189
   1.1401   0.1741   0.1277
   1.1906   0.2496   0.1182
   1.2451   0.2120   0.1093
   1.1899   0.1362   0.0905
   1.1353   0.1738   0.0994
   1.1857   0.2492   0.0899
   1.2403   0.2117   0.0810
   1.3115   0.1010   0.1231
   1.2961   0.0865   0.0471
   1.3720   0.0252   0.0435
   1.3873   0.0398   0.1196
   1.2938   0.0787   0.1310
   1.2784   0.0641   0.0550
   1.3543   0.0029   0.0514
   1.3696   0.0174   0.1274
   1.6037   0.1523   0.0466
   1.7084   0.1269   0.0454
   1.7330   0.2282   0.0445
   1.6284   0.2537   0.0458
   1.6041   0.1525   0.0768
   1.7088   0.1271   0.0755
   1.7334   0.2284   0.0746
   1.6288   0.2538   0.0759
   0.3347   0.0721   0.0767
   0.2149   0.1333   0.1089
   0.2599   0.2163   0.1185
   0.3797   0.1551   0.0863
   0.3298   0.0783   0.0466
   0.2100   0.1395   0.0788
   0.2550   0.2224   0.0884
   0.3748   0.1612   0.0562
   0.2085   0.2737   0.0492
   0.2586   0.1876   0.0441
   0.3441   0.2369   0.0503
   0.2940   0.3230   0.0553
   0.2077   0.2715   0.0786
   0.2577   0.1854   0.0736
   0.3432   0.2347   0.0798
   0.2932   0.3208   0.0848
   0.6179   0.3646   0.0429
   0.5152   0.3135   0.0526
   0.5580   0.2384   0.1102
   0.6607   0.2895   0.1005
   0.6122   0.3810   0.0686
   0.5095   0.3300   0.0782
   0.5523   0.2548   0.1358
   0.6550   0.3059   0.1262
   0.8291   0.2601   0.0756
   0.6889   0.2966   0.0746
   0.7142   0.3941   0.0767
   0.8545   0.3576   0.0777
   0.8295   0.2606   0.0452
   0.6892   0.2972   0.0443
   0.7146   0.3947   0.0464
   0.8549   0.3582   0.0473
   0.8379   0.3599   0.0934
   0.7829   0.3829   0.0501
   0.7307   0.4205   0.1365
   0.7856   0.3975   0.1797
   0.8514   0.3860   0.0902
   0.7964   0.4090   0.0469
   0.7442   0.4466   0.1332
   0.7991   0.4236   0.1765
   0.9474   0.2789   0.1103
   0.8983   0.2768   0.0854
   0.9017   0.3795   0.0702
   0.9507   0.3816   0.0951
   0.9610   0.2746   0.0837
   0.9120   0.2725   0.0588
   0.9153   0.3751   0.0437
   0.9644   0.3772   0.0686
   1.0288   0.2445   0.0663
   1.0738   0.2430   0.1094
   1.0665   0.1441   0.1134
   1.0215   0.1456   0.0703
   1.0490   0.2422   0.0451
   1.0941   0.2406   0.0882
   1.0868   0.1417   0.0922
   1.0417   0.1433   0.0491
   1.3481   0.2028   0.0448
   1.4371   0.1497   0.0456
   1.4850   0.2300   0.0454
   1.3960   0.2830   0.0445
   1.3480   0.2030   0.0734
   1.4369   0.1499   0.0742
   1.4848   0.2301   0.0740
   1.3959   0.2832   0.0731
   1.5477   0.2368   0.0698
   1.6149   0.2294   0.0791
   1.5977   0.1762   0.1622
   1.5304   0.1836   0.1530
   1.5471   0.2123   0.0541
   1.6144   0.2049   0.0633
   1.5971   0.1517   0.1464
   1.5299   0.1591   0.1372
   0.2308   0.4937   0.1157
   0.3464   0.5148   0.1517
   0.3570   0.5846   0.0767
   0.2414   0.5635   0.0406
   0.2212   0.5148   0.1340
   0.3368   0.5359   0.1700
   0.3474   0.6058   0.0950
   0.2318   0.5847   0.0590
   0.3182   0.3122   0.1420
   0.3972   0.3480   0.0629
   0.3448   0.4275   0.0465
   0.2658   0.3917   0.1256
   0.3339   0.3272   0.1645
   0.4129   0.3630   0.0854
   0.3605   0.4425   0.0691
   0.2815   0.4067   0.1482
   0.5743   0.3684   0.1462
   0.6300   0.4336   0.0641
   0.5550   0.4938   0.0611
   0.4994   0.4286   0.1432
   0.5874   0.3858   0.1689
   0.6431   0.4511   0.0868
   0.5681   0.5112   0.0838
   0.5125   0.4460   0.1659
   0.8324   0.6821   0.0754
   0.9506   0.5947   0.0890
   0.8864   0.5101   0.1031
   0.7682   0.5975   0.0895
   0.8323   0.6771   0.0448
   0.9504   0.5897   0.0585
   0.8862   0.5051   0.0726
   0.7681   0.5925   0.0590
   0.7920   0.4171   0.0632
   0.7274   0.4086   0.0790
   0.7341   0.4744   0.1417
   0.7987   0.4828   0.1260
   0.7845   0.4370   0.0432
   0.7199   0.4285   0.0590
   0.7266   0.4942   0.1217
   0.7912   0.5027   0.1060
   1.0752   0.3120   0.0558
   0.9987   0.3640   0.0471
   0.9480   0.2888   0.0443
   1.0244   0.2368   0.0530
   1.0724   0.3128   0.0852
   0.9960   0.3648   0.0765
   0.9452   0.2896   0.0737
   1.0216   0.2376   0.0824
   1.2136   0.4548   0.0536
   1.1930   0.3860   0.0521
   1.1685   0.3912   0.1422
   1.1891   0.4600   0.1438
   1.1866   0.4630   0.0458
   1.1660   0.3942   0.0442
   1.1415   0.3995   0.1344
   1.1621   0.4683   0.1360
   1.2950   0.5266   0.1443
   1.2151   0.5257   0.1580
   1.2020   0.4679   0.0776
   1.2819   0.4688   0.0640
   1.2983   0.5015   0.1619
   1.2183   0.5006   0.1755
   1.2052   0.4428   0.0951
   1.2852   0.4437   0.0815
   1.6855   0.5754   0.0476
   1.5994   0.5935   0.0445
   1.5780   0.4915   0.0456
   1.6641   0.4734   0.0488
   1.6845   0.5759   0.0789
   1.5984   0.5940   0.0757
   1.5769   0.4920   0.0768
   1.6630   0.4739   0.0800
   0.0586   0.4929   0.0496
   0.0323   0.4157   0.0439
   0.0807   0.3935   0.1210
   0.1071   0.4706   0.1267
   0.0356   0.4995   0.0660
   0.0092   0.4224   0.0603
   0.0577   0.4001   0.1374
   0.0840   0.4773   0.1431
   0.4173   0.8188   0.0545
   0.3885   0.7129   0.1176
   0.3529   0.7705   0.1980
   0.3816   0.8764   0.1349
   0.3895   0.8190   0.0421
   0.3608   0.7131   0.1052
   0.3252   0.7706   0.1856
   0.3539   0.8765   0.1225
   0.5979   0.5053   0.0752
   0.6890   0.6146   0.0766
   0.7612   0.5544   0.0767
   0.6701   0.4451   0.0752
   0.5981   0.5055   0.0446
   0.6892   0.6148   0.0460
   0.7614   0.5546   0.0461
   0.6703   0.4453   0.0446
   0.6025   0.6893   0.0466
   0.6552   0.7586   0.0449
   0.5693   0.8239   0.0447
   0.5166   0.7545   0.0463
   0.6028   0.6898   0.0766
   0.6555   0.7591   0.0750
   0.5696   0.8244   0.0747
   0.5169   0.7550   0.0764
   0.8503   0.6928   0.1750
   0.9519   0.7686   0.1629
   0.9504   0.7544   0.0610
   0.8488   0.6786   0.0731
   0.8329   0.7157   0.1721
   0.9345   0.7915   0.1599
   0.9330   0.7772   0.0580
   0.8314   0.7014   0.0702
   1.2413   0.6052   0.1007
   1.2012   0.4787   0.1010
   1.1164   0.5056   0.0742
   1.1565   0.6321   0.0739
   1.2493   0.6026   0.0727
   1.2092   0.4761   0.0730
   1.1244   0.5030   0.0463
   1.1645   0.6295   0.0460
   1.1000   0.6410   0.0598
   1.1486   0.6898   0.0609
   1.1851   0.6517   0.1482
   1.1366   0.6029   0.1472
   1.1180   0.6234   0.0447
   1.1666   0.6723   0.0457
   1.2031   0.6342   0.1331
   1.1545   0.5853   0.1320
   1.2805   0.5610   0.0512
   1.3683   0.5790   0.0450
   1.3465   0.6852   0.0445
   1.2587   0.6673   0.0507
   1.2825   0.5616   0.0815
   1.3704   0.5796   0.0753
   1.3486   0.6858   0.0748
   1.2608   0.6678   0.0810
   1.7223   0.6783   0.0593
   1.6307   0.7269   0.0564
   1.5856   0.6414   0.0439
   1.6772   0.5927   0.0468
   1.7196   0.6752   0.0899
   1.6281   0.7238   0.0870
   1.5830   0.6383   0.0744
   1.6746   0.5896   0.0773
   0.2343   0.9117   0.0816
   0.1997   0.7983   0.0649
   0.2550   0.7691   0.1480
   0.2896   0.8825   0.1647
   0.2097   0.9165   0.0997
   0.1751   0.8031   0.0829
   0.2305   0.7739   0.1660
   0.2651   0.8873   0.1828
   0.2361   0.7743   0.0451
   0.2595   0.6739   0.0440
   0.3493   0.6948   0.0466
   0.3259   0.7952   0.0476
   0.2354   0.7738   0.0738
   0.2588   0.6735   0.0728
   0.3486   0.6944   0.0753
   0.3252   0.7947   0.0763
   0.5989   0.9949   0.0824
   0.4975   0.9628   0.0436
   0.5272   0.8647   0.0470
   0.6286   0.8968   0.0858
   0.5885   0.9927   0.1114
   0.4870   0.9607   0.0726
   0.5168   0.8626   0.0760
   0.6182   0.8946   0.1148
   0.6923   0.7422   0.1769
   0.7215   0.8167   0.0917
   0.6262   0.8409   0.0803
   0.5971   0.7664   0.1656
   0.6956   0.7651   0.1981
   0.7248   0.8396   0.1128
   0.6296   0.8638   0.1015
   0.6004   0.7893   0.1867
   0.8114   0.9586   0.0719
   0.7899   1.0162   0.0990
   0.8921   1.0550   0.0977
   0.9136   0.9973   0.0705
   0.8070   0.9693   0.0455
   0.7855   1.0270   0.0726
   0.8876   1.0658   0.0713
   0.9092   1.0081   0.0441
   1.1662   1.0495   0.1781
   1.1354   1.0199   0.0643
   1.2389   0.9925   0.0435
   1.2697   1.0221   0.1572
   1.1603   1.0201   0.1873
   1.1295   0.9905   0.0736
   1.2330   0.9631   0.0527
   1.2638   0.9927   0.1665
   1.2271   0.7167   0.0953
   1.1623   0.7055   0.0413
   1.1183   0.6553   0.1045
   1.1830   0.6664   0.1585
   1.2140   0.7413   0.1058
   1.1493   0.7301   0.0518
   1.1053   0.6799   0.1150
   1.1700   0.6910   0.1690
   1.5547   0.8590   0.0750
   1.6595   0.7647   0.0767
   1.5976   0.6959   0.0765
   1.4928   0.7901   0.0748
   1.5550   0.8588   0.0447
   1.6599   0.7645   0.0464
   1.5979   0.6957   0.0462
   1.4931   0.7899   0.0445
   1.8023   0.9560   0.0729
[...]
POINT_DATA  6744
VECTORS velocity float
  -0.033648   0.017631   0.080602
  -0.033648   0.017631   0.080602
  -0.033648   0.017631   0.080602
  -0.033648   0.017631   0.080602
  -0.033648   0.017631   0.080602
  -0.033648   0.017631   0.080602
  -0.033648   0.017631   0.080602
  -0.033648   0.017631   0.080602
   0.030502   0.021059  -0.063923
   0.030502   0.021059  -0.063923
   0.030502   0.021059  -0.063923
   0.030502   0.021059  -0.063923
   0.030502   0.021059  -0.063923
   0.030502   0.021059  -0.063923
   0.030502   0.021059  -0.063923
   0.030502   0.021059  -0.063923
  -0.048527  -0.014324  -0.014643
  -0.048527  -0.014324  -0.014643
  -0.048527  -0.014324  -0.014643
  -0.048527  -0.014324  -0.014643
  -0.048527  -0.014324  -0.014643
  -0.048527  -0.014324  -0.014643
  -0.048527  -0.014324  -0.014643
  -0.048527  -0.014324  -0.014643
  -0.000544  -0.140388  -0.031250
  -0.000544  -0.140388  -0.031250
  -0.000544  -0.140388  -0.031250
  -0.000544  -0.140388  -0.031250
  -0.000544  -0.140388  -0.031250
  -0.000544  -0.140388  -0.031250
  -0.000544  -0.140388  -0.031250
  -0.000544  -0.140388  -0.031250
  -0.006788   0.003708   0.041054
  -0.006788   0.003708   0.041054
  -0.006788   0.003708   0.041054
  -0.006788   0.003708   0.041054
  -0.006788   0.003708   0.041054
  -0.006788   0.003708   0.041054
  -0.006788   0.003708   0.041054
  -0.006788   0.003708   0.041054
   0.016716   0.036653  -0.123801
   0.016716   0.036653  -0.123801
   0.016716   0.036653  -0.123801
   0.016716   0.036653  -0.123801
   0.016716   0.036653  -0.123801
   0.016716   0.036653  -0.123801
   0.016716   0.036653  -0.123801
   0.016716   0.036653  -0.123801
  -0.000876   0.130209  -0.029505
  -0.000876   0.130209  -0.029505
  -0.000876   0.130209  -0.029505
  -0.000876   0.130209  -0.029505
  -0.000876   0.130209  -0.029505
  -0.000876   0.130209  -0.029505
  -0.000876   0.130209  -0.029505
  -0.000876   0.130209  -0.029505
   0.048256  -0.073637   0.049295
   0.048256  -0.073637   0.049295
   0.048256  -0.073637   0.049295
   0.048256  -0.073637   0.049295
   0.048256  -0.073637   0.049295
   0.048256  -0.073637   0.049295
   0.048256  -0.073637   0.049295
   0.048256  -0.073637   0.049295
   0.009741  -0.027197   0.013324
   0.009741  -0.027197   0.013324
   0.009741  -0.027197   0.013324
   0.009741  -0.027197   0.013324
   0.009741  -0.027197   0.013324
   0.009741  -0.027197   0.013324
   0.009741  -0.027197   0.013324
   0.009741  -0.027197   0.013324
  -0.015734  -0.022227   0.015508
  -0.015734  -0.022227   0.015508
  -0.015734  -0.022227   0.015508
  -0.015734  -0.022227   0.015508
  -0.015734  -0.022227   0.015508
  -0.015734  -0.022227   0.015508
  -0.015734  -0.022227   0.015508
  -0.015734  -0.022227   0.015508
  -0.018410   0.016116  -0.009316
  -0.018410   0.016116  -0.009316
  -0.018410   0.016116  -0.009316
  -0.018410   0.016116  -0.009316
  -0.018410   0.016116  -0.009316
  -0.018410   0.016116  -0.009316
  -0.018410   0.016116  -0.009316
  -0.018410   0.016116  -0.009316
   0.018393  -0.066281  -0.123335
   0.018393  -0.066281  -0.123335
   0.018393  -0.066281  -0.123335
   0.018393  -0.066281  -0.123335
   0.018393  -0.066281  -0.123335
   0.018393  -0.066281  -0.123335
   0.018393  -0.066281  -0.123335
   0.018393  -0.066281  -0.123335
  -0.009162  -0.011827   0.046548
  -0.009162  -0.011827   0.046548
  -0.009162  -0.011827   0.046548
  -0.009162  -0.011827   0.046548
  -0.009162  -0.011827   0.046548
  -0.009162  -0.011827   0.046548
  -0.009162  -0.011827   0.046548
  -0.009162  -0.011827   0.046548
  -0.020547   0.005087   0.047317
  -0.020547   0.005087   0.047317
  -0.020547   0.005087   0.047317
  -0.020547   0.005087   0.047317
  -0.020547   0.005087   0.047317
  -0.020547   0.005087   0.047317
  -0.020547   0.005087   0.047317
  -0.020547   0.005087   0.047317
  -0.101067   0.141687  -0.055804
  -0.101067   0.141687  -0.055804
  -0.101067   0.141687  -0.055804
  -0.101067   0.141687  -0.055804
  -0.101067   0.141687  -0.055804
  -0.101067   0.141687  -0.055804
  -0.101067   0.141687  -0.055804
  -0.101067   0.141687  -0.055804
  -0.070666   0.071482  -0.122456
  -0.070666   0.071482  -0.122456
  -0.070666   0.071482  -0.122456
  -0.070666   0.071482  -0.122456
  -0.070666   0.071482  -0.122456
  -0.070666   0.071482  -0.122456
  -0.070666   0.071482  -0.122456
  -0.070666   0.071482  -0.122456
   0.014710   0.001692   0.029847
   0.014710   0.001692   0.029847
   0.014710   0.001692   0.029847
   0.014710   0.001692   0.029847
   0.014710   0.001692   0.029847
   0.014710   0.001692   0.029847
   0.014710   0.001692   0.029847
   0.014710   0.001692   0.029847
   0.121802  -0.138045  -0.061865
   0.121802  -0.138045  -0.061865
   0.121802  -0.138045  -0.061865
   0.121802  -0.138045  -0.061865
   0.121802  -0.138045  -0.061865
   0.121802  -0.138045  -0.061865
   0.121802  -0.138045  -0.061865
   0.121802  -0.138045  -0.061865
   0.001316   0.004505   0.029937
   0.001316   0.004505   0.029937
   0.001316   0.004505   0.029937
   0.001316   0.004505   0.029937
   0.001316   0.004505   0.029937
   0.001316   0.004505   0.029937
   0.001316   0.004505   0.029937
   0.001316   0.004505   0.029937
   0.066938  -0.111070  -0.127762
   0.066938  -0.111070  -0.127762
   0.066938  -0.111070  -0.127762
   0.066938  -0.111070  -0.127762
   0.066938  -0.111070  -0.127762
   0.066938  -0.111070  -0.127762
   0.066938  -0.111070  -0.127762
   0.066938  -0.111070  -0.127762
  -0.119733  -0.014489  -0.015712
  -0.119733  -0.014489  -0.015712
  -0.119733  -0.014489  -0.015712
  -0.119733  -0.014489  -0.015712
  -0.119733  -0.014489  -0.015712
  -0.119733  -0.014489  -0.015712
  -0.119733  -0.014489  -0.015712
  -0.119733  -0.014489  -0.015712
   0.109987  -0.072815  -0.150332
   0.109987  -0.072815  -0.150332
   0.109987  -0.072815  -0.150332
   0.109987  -0.072815  -0.150332
   0.109987  -0.072815  -0.150332
   0.109987  -0.072815  -0.150332
   0.109987  -0.072815  -0.150332
   0.109987  -0.072815  -0.150332
   0.033063   0.079112  -0.009118
   0.033063   0.079112  -0.009118
   0.033063   0.079112  -0.009118
   0.033063   0.079112  -0.009118
   0.033063   0.079112  -0.009118
   0.033063   0.079112  -0.009118
   0.033063   0.079112  -0.009118
   0.033063   0.079112  -0.009118
   0.008760  -0.027440   0.010726
   0.008760  -0.027440   0.010726
   0.008760  -0.027440   0.010726
   0.008760  -0.027440   0.010726
   0.008760  -0.027440   0.010726
   0.008760  -0.027440   0.010726
   0.008760  -0.027440   0.010726
   0.008760  -0.027440   0.010726
  -0.011170   0.030792   0.009623
  -0.011170   0.030792   0.009623
  -0.011170   0.030792   0.009623
  -0.011170   0.030792   0.009623
  -0.011170   0.030792   0.009623
  -0.011170   0.030792   0.009623
  -0.011170   0.030792   0.009623
  -0.011170   0.030792   0.009623
  -0.012484   0.078934  -0.030604
  -0.012484   0.078934  -0.030604
  -0.012484   0.078934  -0.030604
  -0.012484   0.078934  -0.030604
  -0.012484   0.078934  -0.030604
  -0.012484   0.078934  -0.030604
  -0.012484   0.078934  -0.030604
  -0.012484   0.078934  -0.030604
   0.042483   0.040370   0.060738
   0.042483   0.040370   0.060738
   0.042483   0.040370   0.060738
   0.042483   0.040370   0.060738
   0.042483   0.040370   0.060738
   0.042483   0.040370   0.060738
   0.042483   0.040370   0.060738
   0.042483   0.040370   0.060738
   0.068270   0.022089  -0.071081
   0.068270   0.022089  -0.071081
   0.068270   0.022089  -0.071081
   0.068270   0.022089  -0.071081
   0.068270   0.022089  -0.071081
   0.068270   0.022089  -0.071081
   0.068270   0.022089  -0.071081
   0.068270   0.022089  -0.071081
  -0.095010  -0.208387  -0.059007
  -0.095010  -0.208387  -0.059007
  -0.095010  -0.208387  -0.059007
  -0.095010  -0.208387  -0.059007
  -0.095010  -0.208387  -0.059007
  -0.095010  -0.208387  -0.059007
  -0.095010  -0.208387  -0.059007
  -0.095010  -0.208387  -0.059007
  -0.006311   0.018985  -0.001918
  -0.006311   0.018985  -0.001918
  -0.006311   0.018985  -0.001918
  -0.006311   0.018985  -0.001918
  -0.006311   0.018985  -0.001918
  -0.006311   0.018985  -0.001918
  -0.006311   0.018985  -0.001918
  -0.006311   0.018985  -0.001918
  -0.017339  -0.028760  -0.065480
  -0.017339  -0.028760  -0.065480
  -0.017339  -0.028760  -0.065480
  -0.017339  -0.028760  -0.065480
  -0.017339  -0.028760  -0.065480
  -0.017339  -0.028760  -0.065480
  -0.017339  -0.028760  -0.065480
  -0.017339  -0.028760  -0.065480
  -0.092396  -0.137595   0.080365
  -0.092396  -0.137595   0.080365
  -0.092396  -0.137595   0.080365
  -0.092396  -0.137595   0.080365
  -0.092396  -0.137595   0.080365
  -0.092396  -0.137595   0.080365
  -0.092396  -0.137595   0.080365
  -0.092396  -0.137595   0.080365
   0.100512   0.013507  -0.029288
   0.100512   0.013507  -0.029288
   0.100512   0.013507  -0.029288
   0.100512   0.013507  -0.029288
   0.100512   0.013507  -0.029288
   0.100512   0.013507  -0.029288
   0.100512   0.013507  -0.029288
   0.100512   0.013507  -0.029288
   0.007431  -0.040048   0.036388
   0.007431  -0.040048   0.036388
   0.007431  -0.040048   0.036388
   0.007431  -0.040048   0.036388
   0.007431  -0.040048   0.036388
   0.007431  -0.040048   0.036388
   0.007431  -0.040048   0.036388
   0.007431  -0.040048   0.036388
  -0.055326   0.008418  -0.100367
  -0.055326   0.008418  -0.100367
  -0.055326   0.008418  -0.100367
  -0.055326   0.008418  -0.100367
  -0.055326   0.008418  -0.100367
  -0.055326   0.008418  -0.100367
  -0.055326   0.008418  -0.100367
  -0.055326   0.008418  -0.100367
  -0.000008   0.030647   0.006920
  -0.000008   0.030647   0.006920
  -0.000008   0.030647   0.006920
  -0.000008   0.030647   0.006920
  -0.000008   0.030647   0.006920
  -0.000008   0.030647   0.006920
  -0.000008   0.030647   0.006920
  -0.000008   0.030647   0.006920
   0.049519  -0.202285  -0.055776
   0.049519  -0.202285  -0.055776
   0.049519  -0.202285  -0.055776
   0.049519  -0.202285  -0.055776
   0.049519  -0.202285  -0.055776
   0.049519  -0.202285  -0.055776
   0.049519  -0.202285  -0.055776
   0.049519  -0.202285  -0.055776
   0.014000  -0.006281   0.064114
   0.014000  -0.006281   0.064114
   0.014000  -0.006281   0.064114
   0.014000  -0.006281   0.064114
   0.014000  -0.006281   0.064114
   0.014000  -0.006281   0.064114
   0.014000  -0.006281   0.064114
   0.014000  -0.006281   0.064114
  -0.018630  -0.079851  -0.148393
  -0.018630  -0.079851  -0.148393
  -0.018630  -0.079851  -0.148393
  -0.018630  -0.079851  -0.148393
  -0.018630  -0.079851  -0.148393
  -0.018630  -0.079851  -0.148393
  -0.018630  -0.079851  -0.148393
  -0.018630  -0.079851  -0.148393
  -0.224141  -0.074490  -0.057337
  -0.224141  -0.074490  -0.057337
  -0.224141  -0.074490  -0.057337
  -0.224141  -0.074490  -0.057337
  -0.224141  -0.074490  -0.057337
  -0.224141  -0.074490  -0.057337
  -0.224141  -0.074490  -0.057337
  -0.224141  -0.074490  -0.057337
  -0.002131   0.045962  -0.016748
  -0.002131   0.045962  -0.016748
  -0.002131   0.045962  -0.016748
  -0.002131   0.045962  -0.016748
  -0.002131   0.045962  -0.016748
  -0.002131   0.045962  -0.016748
  -0.002131   0.045962  -0.016748
  -0.002131   0.045962  -0.016748
   0.195640  -0.000837   0.085003
   0.195640  -0.000837   0.085003
   0.195640  -0.000837   0.085003
   0.195640  -0.000837   0.085003
   0.195640  -0.000837   0.085003
   0.195640  -0.000837   0.085003
   0.195640  -0.000837   0.085003
   0.195640  -0.000837   0.085003
   0.079383   0.007208   0.138842
   0.079383   0.007208   0.138842
   0.079383   0.007208   0.138842
   0.079383   0.007208   0.138842
   0.079383   0.007208   0.138842
   0.079383   0.007208   0.138842
   0.079383   0.007208   0.138842
   0.079383   0.007208   0.138842
   0.013090  -0.000292  -0.019071
   0.013090  -0.000292  -0.019071
   0.013090  -0.000292  -0.019071
   0.013090  -0.000292  -0.019071
   0.013090  -0.000292  -0.019071
   0.013090  -0.000292  -0.019071
   0.013090  -0.000292  -0.019071
   0.013090  -0.000292  -0.019071
  -0.074344   0.017327   0.118466
  -0.074344   0.017327   0.118466
  -0.074344   0.017327   0.118466
  -0.074344   0.017327   0.118466
  -0.074344   0.017327   0.118466
  -0.074344   0.017327   0.118466
  -0.074344   0.017327   0.118466
  -0.074344   0.017327   0.118466
  -0.004357   0.035045  -0.014339
  -0.004357   0.035045  -0.014339
  -0.004357   0.035045  -0.014339
  -0.004357   0.035045  -0.014339
  -0.004357   0.035045  -0.014339
  -0.004357   0.035045  -0.014339
  -0.004357   0.035045  -0.014339
  -0.004357   0.035045  -0.014339
  -0.011573   0.009063   0.000911
  -0.011573   0.009063   0.000911
  -0.011573   0.009063   0.000911
  -0.011573   0.009063   0.000911
  -0.011573   0.009063   0.000911
  -0.011573   0.009063   0.000911
  -0.011573   0.009063   0.000911
  -0.011573   0.009063   0.000911
  -0.017795   0.006494   0.106125
  -0.017795   0.006494   0.106125
  -0.017795   0.006494   0.106125
  -0.017795   0.006494   0.106125
  -0.017795   0.006494   0.106125
  -0.017795   0.006494   0.106125
  -0.017795   0.006494   0.106125
  -0.017795   0.006494   0.106125
  -0.038420  -0.046626   0.066786
  -0.038420  -0.046626   0.066786
  -0.038420  -0.046626   0.066786
  -0.038420  -0.046626   0.066786
  -0.038420  -0.046626   0.066786
  -0.038420  -0.046626   0.066786
  -0.038420  -0.046626   0.066786
  -0.038420  -0.046626   0.066786
  -0.024062   0.112200   0.028204
  -0.024062   0.112200   0.028204
  -0.024062   0.112200   0.028204
  -0.024062   0.112200   0.028204
  -0.024062   0.112200   0.028204
  -0.024062   0.112200   0.028204
  -0.024062   0.112200   0.028204
  -0.024062   0.112200   0.028204
   0.110239   0.034581   0.025849
   0.110239   0.034581   0.025849
   0.110239   0.034581   0.025849
   0.110239   0.034581   0.025849
   0.110239   0.034581   0.025849
   0.110239   0.034581   0.025849
   0.110239   0.034581   0.025849
   0.110239   0.034581   0.025849
  -0.006087   0.042417   0.039419
  -0.006087   0.042417   0.039419
  -0.006087   0.042417   0.039419
  -0.006087   0.042417   0.039419
  -0.006087   0.042417   0.039419
  -0.006087   0.042417   0.039419
  -0.006087   0.042417   0.039419
  -0.006087   0.042417   0.039419
   0.051051  -0.013175   0.090437
   0.051051  -0.013175   0.090437
   0.051051  -0.013175   0.090437
   0.051051  -0.013175   0.090437
   0.051051  -0.013175   0.090437
   0.051051  -0.013175   0.090437
   0.051051  -0.013175   0.090437
   0.051051  -0.013175   0.090437
  -0.085570  -0.074944  -0.223895
  -0.085570  -0.074944  -0.223895
  -0.085570  -0.074944  -0.223895
  -0.085570  -0.074944  -0.223895
  -0.085570  -0.074944  -0.223895
  -0.085570  -0.074944  -0.223895
  -0.085570  -0.074944  -0.223895
  -0.085570  -0.074944  -0.223895
   0.000803  -0.025592  -0.082091
   0.000803  -0.025592  -0.082091
   0.000803  -0.025592  -0.082091
   0.000803  -0.025592  -0.082091
   0.000803  -0.025592  -0.082091
   0.000803  -0.025592  -0.082091
   0.000803  -0.025592  -0.082091
   0.000803  -0.025592  -0.082091
  -0.018809   0.018244   0.022134
  -0.018809   0.018244   0.022134
  -0.018809   0.018244   0.022134
  -0.018809   0.018244   0.022134
  -0.018809   0.018244   0.022134
  -0.018809   0.018244   0.022134
  -0.018809   0.018244   0.022134
  -0.018809   0.018244   0.022134
  -0.022298  -0.038097   0.083622
  -0.022298  -0.038097   0.083622
  -0.022298  -0.038097   0.083622
  -0.022298  -0.038097   0.083622
  -0.022298  -0.038097   0.083622
  -0.022298  -0.038097   0.083622
  -0.022298  -0.038097   0.083622
  -0.022298  -0.038097   0.083622
  -0.017365   0.014526  -0.028313
  -0.017365   0.014526  -0.028313
  -0.017365   0.014526  -0.028313
  -0.017365   0.014526  -0.028313
  -0.017365   0.014526  -0.028313
  -0.017365   0.014526  -0.028313
  -0.017365   0.014526  -0.028313
  -0.017365   0.014526  -0.028313
   0.139019  -0.156805  -0.154466
   0.139019  -0.156805  -0.154466
   0.139019  -0.156805  -0.154466
   0.139019  -0.156805  -0.154466
   0.139019  -0.156805  -0.154466
   0.139019  -0.156805  -0.154466
   0.139019  -0.156805  -0.154466
   0.139019  -0.156805  -0.154466
  -0.072788   0.060118  -0.023831
  -0.072788   0.060118  -0.023831
  -0.072788   0.060118  -0.023831
  -0.072788   0.060118  -0.023831
  -0.072788   0.060118  -0.023831
  -0.072788   0.060118  -0.023831
  -0.072788   0.060118  -0.023831
  -0.072788   0.060118  -0.023831
   0.016956   0.001634  -0.021207
   0.016956   0.001634  -0.021207
   0.016956   0.001634  -0.021207
   0.016956   0.001634  -0.021207
   0.016956   0.001634  -0.021207
   0.016956   0.001634  -0.021207
   0.016956   0.001634  -0.021207
   0.016956   0.001634  -0.021207
  -0.003155  -0.001134   0.001684
  -0.003155  -0.001134   0.001684
  -0.003155  -0.001134   0.001684
  -0.003155  -0.001134   0.001684
  -0.003155  -0.001134   0.001684
  -0.003155  -0.001134   0.001684
  -0.003155  -0.001134   0.001684
  -0.003155  -0.001134   0.001684
  -0.116423   0.141232  -0.077142
  -0.116423   0.141232  -0.077142
  -0.116423   0.141232  -0.077142
  -0.116423   0.141232  -0.077142
  -0.116423   0.141232  -0.077142
  -0.116423   0.141232  -0.077142
  -0.116423   0.141232  -0.077142
  -0.116423   0.141232  -0.077142
  -0.039318  -0.009798   0.112312
  -0.039318  -0.009798   0.112312
  -0.039318  -0.009798   0.112312
  -0.039318  -0.009798   0.112312
  -0.039318  -0.009798   0.112312
  -0.039318  -0.009798   0.112312
  -0.039318  -0.009798   0.112312
  -0.039318  -0.009798   0.112312
   0.019463  -0.050313   0.046477
   0.019463  -0.050313   0.046477
   0.019463  -0.050313   0.046477
   0.019463  -0.050313   0.046477
   0.019463  -0.050313   0.046477
   0.019463  -0.050313   0.046477
   0.019463  -0.050313   0.046477
   0.019463  -0.050313   0.046477
  -0.077827  -0.133505   0.171512
  -0.077827  -0.133505   0.171512
  -0.077827  -0.133505   0.171512
  -0.077827  -0.133505   0.171512
  -0.077827  -0.133505   0.171512
  -0.077827  -0.133505   0.171512
  -0.077827  -0.133505   0.171512
  -0.077827  -0.133505   0.171512
  -0.025154   0.142797   0.019258
  -0.025154   0.142797   0.019258
  -0.025154   0.142797   0.019258
  -0.025154   0.142797   0.019258
  -0.025154   0.142797   0.019258
  -0.025154   0.142797   0.019258
  -0.025154   0.142797   0.019258
  -0.025154   0.142797   0.019258
  -0.087860  -0.090656  -0.162231
  -0.087860  -0.090656  -0.162231
  -0.087860  -0.090656  -0.162231
  -0.087860  -0.090656  -0.162231
  -0.087860  -0.090656  -0.162231
  -0.087860  -0.090656  -0.162231
  -0.087860  -0.090656  -0.162231
  -0.087860  -0.090656  -0.162231
  -0.029657  -0.068975  -0.050006
  -0.029657  -0.068975  -0.050006
  -0.029657  -0.068975  -0.050006
  -0.029657  -0.068975  -0.050006
  -0.029657  -0.068975  -0.050006
  -0.029657  -0.068975  -0.050006
  -0.029657  -0.068975  -0.050006
  -0.029657  -0.068975  -0.050006
   0.011759   0.021883   0.036591
   0.011759   0.021883   0.036591
   0.011759   0.021883   0.036591
   0.011759   0.021883   0.036591
   0.011759   0.021883   0.036591
   0.011759   0.021883   0.036591
   0.011759   0.021883   0.036591
   0.011759   0.021883   0.036591
   0.128132  -0.052604  -0.248513
   0.128132  -0.052604  -0.248513
   0.128132  -0.052604  -0.248513
   0.128132  -0.052604  -0.248513
   0.128132  -0.052604  -0.248513
   0.128132  -0.052604  -0.248513
   0.128132  -0.052604  -0.248513
   0.128132  -0.052604  -0.248513
   0.103031  -0.050904   0.055926
   0.103031  -0.050904   0.055926
   0.103031  -0.050904   0.055926
   0.103031  -0.050904   0.055926
   0.103031  -0.050904   0.055926
   0.103031  -0.050904   0.055926
   0.103031  -0.050904   0.055926
   0.103031  -0.050904   0.055926
   0.038712   0.044380  -0.052390
   0.038712   0.044380  -0.052390
   0.038712   0.044380  -0.052390
   0.038712   0.044380  -0.052390
   0.038712   0.044380  -0.052390
   0.038712   0.044380  -0.052390
   0.038712   0.044380  -0.052390
   0.038712   0.044380  -0.052390
   0.002414  -0.008799   0.024672
   0.002414  -0.008799   0.024672
   0.002414  -0.008799   0.024672