# vtk DataFile Version 2.0
Startpositionen
ASCII
DATASET POLYDATA
 POINTS         6744  float

   0.1149   0.1630   0.3139
   0.0203   0.1217   0.2768
   0.0752   0.0414   0.2263
   0.1698   0.0827   0.2633
   0.1128   0.1466   0.3376
   0.0182   0.1052   0.3005
   0.0731   0.0250   0.2500
   0.1676   0.0663   0.2871
   0.3354   0.1168   0.3046
   0.3354   0.0646   0.2953
   0.2266   0.0659   0.2889
   0.2267   0.1180   0.2982
   0.3372   0.1221   0.2750
   0.3372   0.0699   0.2656
   0.2284   0.0712   0.2593
   0.2285   0.1233   0.2686
   0.3979   0.0798   0.2746
   0.4842   0.0219   0.2875
   0.5404   0.0996   0.2611
   0.4541   0.1576   0.2482
   0.3994   0.0883   0.3027
   0.4857   0.0304   0.3157
   0.5418   0.1081   0.2893
   0.4555   0.1661   0.2763
   0.6391   0.1304   0.2303
   0.6414   0.1551   0.3002
   0.6480   0.0561   0.3350
   0.6457   0.0314   0.2651
   0.6677   0.1318   0.2289
   0.6699   0.1566   0.2988
   0.6766   0.0575   0.3336
   0.6743   0.0328   0.2636
   0.8094   0.1138   0.3253
   0.8305   0.1519   0.2787
   0.9005   0.0879   0.2581
   0.8795   0.0499   0.3047
   0.7911   0.1000   0.3058
   0.8121   0.1381   0.2591
   0.8822   0.0741   0.2386
   0.8612   0.0361   0.2852
   1.1150   0.1252   0.3020
   1.0255   0.0064   0.2972
   0.9504   0.0632   0.2908
   1.0399   0.1820   0.2956
   1.1171   0.1248   0.2730
   1.0276   0.0060   0.2683
   0.9526   0.0627   0.2619
   1.0420   0.1816   0.2666
   1.2147   0.0501   0.2441
   1.1735   0.0638   0.2949
   1.2384   0.1147   0.3339
   1.2796   0.1011   0.2831
   1.2050   0.0732   0.2300
   1.1638   0.0869   0.2808
   1.2287   0.1378   0.3198
   1.2700   0.1242   0.2690
   1.3736   0.1457   0.2686
   1.4068   0.0956   0.2176
   1.4658   0.0628   0.2880
   1.4326   0.1130   0.3391
   1.3536   0.1251   0.2758
   1.3868   0.0750   0.2248
   1.4458   0.0423   0.2952
   1.4126   0.0924   0.3463
   1.5399   0.0693   0.2383
   1.6237   0.0223   0.2869
   1.6690   0.1154   0.2989
   1.5852   0.1625   0.2503
   1.5262   0.0726   0.2649
   1.6100   0.0255   0.3136
   1.6554   0.1186   0.3256
   1.5716   0.1657   0.2769
   0.0916   0.1996   0.3040
   0.0230   0.3001   0.2382
   0.0755   0.3652   0.2830
   0.1441   0.2647   0.3487
   0.1124   0.1987   0.2809
   0.0438   0.2992   0.2151
   0.0963   0.3643   0.2599
   0.1649   0.2638   0.3256
   0.2146   0.3018   0.2671
   0.2630   0.2145   0.2661
   0.3494   0.2625   0.2672
   0.3010   0.3497   0.2682
   0.2144   0.3013   0.2967
   0.2628   0.2141   0.2957
   0.3493   0.2621   0.2968
   0.3009   0.3493   0.2978
   0.4998   0.3522   0.2614
   0.4336   0.2717   0.2124
   0.4637   0.2031   0.2845
   0.5299   0.2836   0.3334
   0.4761   0.3607   0.2794
   0.4099   0.2803   0.2305
   0.4399   0.2117   0.3025
   0.5062   0.2922   0.3515
   0.6851   0.1976   0.2688
   0.5711   0.2799   0.3042
   0.6329   0.3571   0.3238
   0.7469   0.2748   0.2884
   0.6828   0.2068   0.2400
   0.5688   0.2891   0.2754
   0.6306   0.3662   0.2950
   0.7446   0.2840   0.2596
   0.8833   0.2279   0.2696
   0.8403   0.2599   0.2190
   0.7889   0.3138   0.2968
   0.8319   0.2818   0.3474
   0.9027   0.2501   0.2671
   0.8597   0.2821   0.2165
   0.8083   0.3359   0.2943
   0.8513   0.3040   0.3449
   1.0550   0.2326   0.3101
   1.0023   0.2315   0.2942
   1.0038   0.3347   0.2824
   1.0565   0.3357   0.2983
   1.0637   0.2292   0.2814
   1.0111   0.2281   0.2656
   1.0125   0.3313   0.2537
   1.0652   0.3323   0.2696
   1.1842   0.3271   0.2677
   1.2445   0.3292   0.2520
   1.2640   0.2568   0.3171
   1.2037   0.2547   0.3328
   1.1794   0.3070   0.2468
   1.2398   0.3091   0.2311
   1.2592   0.2367   0.2961
   1.1989   0.2346   0.3118
   1.3385   0.2809   0.2815
   1.4149   0.2147   0.2590
   1.4752   0.2860   0.2545
   1.3988   0.3521   0.2770
   1.3441   0.2779   0.3094
   1.4206   0.2117   0.2869
   1.4809   0.2830   0.2823
   1.4044   0.3491   0.3049
   1.5774   0.3178   0.2351
   1.6431   0.3135   0.2532
   1.6163   0.2726   0.3407
   1.5506   0.2769   0.3226
   1.5789   0.2913   0.2232
   1.6446   0.2870   0.2413
   1.6179   0.2461   0.3287
   1.5522   0.2504   0.3107
   0.0596   0.3961   0.2766
   0.1204   0.4643   0.3589
   0.1524   0.5268   0.2834
   0.0916   0.4586   0.2012
   0.0356   0.4130   0.2804
   0.0964   0.4812   0.3627
   0.1283   0.5437   0.2872
   0.0675   0.4755   0.2050
   0.2876   0.3967   0.3071
   0.3100   0.4593   0.2103
   0.2520   0.5296   0.2424
   0.2296   0.4670   0.3392
   0.3119   0.4102   0.3215
   0.3343   0.4728   0.2247
   0.2763   0.5431   0.2567
   0.2539   0.4805   0.3535
   0.4547   0.4089   0.3280
   0.4947   0.4317   0.2186
   0.4580   0.5204   0.2237
   0.4180   0.4976   0.3332
   0.4818   0.4193   0.3401
   0.5218   0.4422   0.2307
   0.4851   0.5309   0.2358
   0.4451   0.5081   0.3453
   0.6219   0.5543   0.2938
   0.7496   0.4808   0.2855
   0.6975   0.3884   0.3006
   0.5698   0.4619   0.3090
   0.6182   0.5513   0.2633
   0.7459   0.4779   0.2549
   0.6938   0.3855   0.2700
   0.5661   0.4590   0.2784
   0.8836   0.4448   0.2451
   0.8198   0.4260   0.2535
   0.8169   0.4710   0.3327
   0.8808   0.4898   0.3243
   0.8747   0.4688   0.2311
   0.8109   0.4500   0.2396
   0.8080   0.4950   0.3188
   0.8718   0.5138   0.3103
   1.0939   0.4909   0.2625
   1.0068   0.5152   0.2412
   0.9767   0.4364   0.2748
   1.0637   0.4121   0.2960
   1.0908   0.5034   0.2891
   1.0038   0.5276   0.2678
   0.9737   0.4489   0.3013
   1.0607   0.4246   0.3226
   1.2594   0.4951   0.2415
   1.2293   0.4301   0.2367
   1.2099   0.4323   0.3282
   1.2400   0.4973   0.3330
   1.2335   0.5075   0.2357
   1.2034   0.4425   0.2309
   1.1840   0.4447   0.3224
   1.2141   0.5097   0.3272
   1.4547   0.5001   0.3198
   1.3739   0.5052   0.3250
   1.3657   0.4682   0.2326
   1.4465   0.4631   0.2274
   1.4537   0.4716   0.3313
   1.3729   0.4766   0.3365
   1.3646   0.4397   0.2441
   1.4454   0.4346   0.2389
   1.6121   0.5353   0.2618
   1.5474   0.5065   0.3141
   1.5624   0.4094   0.2792
   1.6271   0.4383   0.2269
   1.6328   0.5303   0.2847
   1.5681   0.5015   0.3370
   1.5832   0.4044   0.3021
   1.6478   0.4333   0.2497
   0.0926   0.6821   0.2229
   0.0740   0.6069   0.2490
   0.1199   0.6234   0.3291
   0.1384   0.6986   0.3030
   0.0681   0.6923   0.2348
   0.0495   0.6171   0.2609
   0.0954   0.6336   0.3410
   0.1139   0.7088   0.3149
   0.3052   0.6625   0.2017
   0.2972   0.5765   0.2943
   0.2889   0.6536   0.3652
   0.2969   0.7396   0.2726
   0.2750   0.6621   0.1987
   0.2670   0.5761   0.2913
   0.2587   0.6532   0.3621
   0.2667   0.7392   0.2696
   0.3913   0.6253   0.2652
   0.4670   0.7444   0.2838
   0.5349   0.6948   0.3257
   0.4592   0.5757   0.3072
   0.4049   0.6209   0.2381
   0.4806   0.7400   0.2567
   0.5484   0.6904   0.2986
   0.4728   0.5713   0.2801
   0.6620   0.5930   0.3103
   0.7127   0.6277   0.2485
   0.6400   0.7058   0.2328
   0.5893   0.6711   0.2946
   0.6757   0.6099   0.3311
   0.7264   0.6446   0.2693
   0.6537   0.7227   0.2535
   0.6030   0.6880   0.3153
   0.8397   0.6461   0.3640
   0.9080   0.7130   0.2798
   0.8744   0.6520   0.2041
   0.8061   0.5851   0.2883
   0.8172   0.6637   0.3598
   0.8855   0.7306   0.2756
   0.8519   0.6696   0.1999
   0.7836   0.6027   0.2840
   1.0802   0.6956   0.3384
   0.9918   0.5983   0.3203
   0.9670   0.6360   0.2390
   1.0554   0.7333   0.2572
   1.1005   0.6797   0.3248
   1.0121   0.5824   0.3067
   0.9873   0.6201   0.2255
   1.0757   0.7174   0.2436
   1.1688   0.6554   0.2473
   1.2197   0.7000   0.2348
   1.2583   0.6821   0.3276
   1.2074   0.6374   0.3401
   1.1852   0.6336   0.2363
   1.2360   0.6783   0.2238
   1.2746   0.6603   0.3165
   1.2238   0.6156   0.3291
   1.3816   0.5985   0.3116
   1.4632   0.6100   0.2757
   1.4292   0.7013   0.2279
   1.3477   0.6897   0.2638
   1.3901   0.6144   0.3360
   1.4717   0.6260   0.3001
   1.4377   0.7172   0.2523
   1.3562   0.7057   0.2882
   1.6644   0.6422   0.2574
   1.6021   0.7250   0.2541
   1.5258   0.6685   0.2765
   1.5881   0.5857   0.2798
   1.6695   0.6472   0.2874
   1.6071   0.7300   0.2841
   1.5309   0.6735   0.3064
   1.5932   0.5907   0.3098
   0.1149   0.9098   0.2373
   0.0738   0.7988   0.2194
   0.1009   0.7731   0.3166
   0.1419   0.8842   0.3344
   0.0870   0.9185   0.2473
   0.0460   0.8074   0.2295
   0.0731   0.7818   0.3266
   0.1141   0.8929   0.3444
   0.2254   0.8881   0.2806
   0.2452   0.7884   0.2634
   0.3350   0.8077   0.2551
   0.3152   0.9074   0.2723
   0.2289   0.8839   0.3088
   0.2487   0.7842   0.2916
   0.3385   0.8036   0.2833
   0.3187   0.9032   0.3005
   0.5097   0.9030   0.2470
   0.4188   0.8396   0.2234
   0.4466   0.7728   0.2961
   0.5374   0.8361   0.3197
   0.4932   0.9188   0.2678
   0.4024   0.8555   0.2442
   0.4301   0.7886   0.3169
   0.5209   0.8520   0.3405
   0.7056   0.7919   0.3123
   0.6951   0.8537   0.2137
   0.6009   0.8739   0.2363
   0.6114   0.8120   0.3350
   0.7148   0.8177   0.3276
   0.7043   0.8796   0.2289
   0.6101   0.8997   0.2515
   0.6206   0.8379   0.3502
   0.8212   0.8086   0.2336
   0.7805   0.8410   0.2762
   0.8647   0.8581   0.3437
   0.9054   0.8257   0.3011
   0.8269   0.8335   0.2201
   0.7862   0.8659   0.2628
   0.8704   0.8830   0.3303
   0.9112   0.8506   0.2876
   0.9748   0.8895   0.3210
   0.9992   0.8554   0.2070
   1.1015   0.8314   0.2360
   1.0772   0.8655   0.3500
   0.9660   0.8602   0.3279
   0.9903   0.8261   0.2138
   1.0927   0.8021   0.2429
   1.0683   0.8362   0.3569
   1.2831   0.8651   0.2842
   1.2230   0.8755   0.2248
   1.1743   0.8070   0.2621
   1.2344   0.7966   0.3215
   1.2691   0.8846   0.3017
   1.2091   0.8950   0.2424
   1.1603   0.8265   0.2797
   1.2204   0.8161   0.3390
   1.3441   0.8907   0.2500
   1.4730   0.8980   0.3065
   1.4634   0.8120   0.3395
   1.3345   0.8048   0.2830
   1.3559   0.8796   0.2244
   1.4849   0.8868   0.2809
   1.4753   0.8009   0.3139
   1.3463   0.7936   0.2574
   1.6806   0.8549   0.2524
[...]
POINT_DATA  6744
VECTORS velocity float
   0.096849   0.479363  -0.350715
   0.096849   0.479363  -0.350715
   0.096849   0.479363  -0.350715
   0.096849   0.479363  -0.350715
   0.096849   0.479363  -0.350715
   0.096849   0.479363  -0.350715
   0.096849   0.479363  -0.350715
   0.096849   0.479363  -0.350715
  -0.470244   0.447893   0.051127
  -0.470244   0.447893   0.051127
  -0.470244   0.447893   0.051127
  -0.470244   0.447893   0.051127
  -0.470244   0.447893   0.051127
  -0.470244   0.447893   0.051127
  -0.470244   0.447893   0.051127
  -0.470244   0.447893   0.051127
   0.047314  -0.027384  -0.180618
   0.047314  -0.027384  -0.180618
   0.047314  -0.027384  -0.180618
   0.047314  -0.027384  -0.180618
   0.047314  -0.027384  -0.180618
   0.047314  -0.027384  -0.180618
   0.047314  -0.027384  -0.180618
   0.047314  -0.027384  -0.180618
  -0.257966   0.257912  -0.446309
  -0.257966   0.257912  -0.446309
  -0.257966   0.257912  -0.446309
  -0.257966   0.257912  -0.446309
  -0.257966   0.257912  -0.446309
  -0.257966   0.257912  -0.446309
  -0.257966   0.257912  -0.446309
  -0.257966   0.257912  -0.446309
  -0.362270  -0.147235   0.044855
  -0.362270  -0.147235   0.044855
  -0.362270  -0.147235   0.044855
  -0.362270  -0.147235   0.044855
  -0.362270  -0.147235   0.044855
  -0.362270  -0.147235   0.044855
  -0.362270  -0.147235   0.044855
  -0.362270  -0.147235   0.044855
   0.488072  -0.282638  -0.320249
   0.488072  -0.282638  -0.320249
   0.488072  -0.282638  -0.320249
   0.488072  -0.282638  -0.320249
   0.488072  -0.282638  -0.320249
   0.488072  -0.282638  -0.320249
   0.488072  -0.282638  -0.320249
   0.488072  -0.282638  -0.320249
  -0.331406  -0.436851  -0.418486
  -0.331406  -0.436851  -0.418486
  -0.331406  -0.436851  -0.418486
  -0.331406  -0.436851  -0.418486
  -0.331406  -0.436851  -0.418486
  -0.331406  -0.436851  -0.418486
  -0.331406  -0.436851  -0.418486
  -0.331406  -0.436851  -0.418486
  -0.210903  -0.122775  -0.133719
  -0.210903  -0.122775  -0.133719
  -0.210903  -0.122775  -0.133719
  -0.210903  -0.122775  -0.133719
  -0.210903  -0.122775  -0.133719
  -0.210903  -0.122775  -0.133719
  -0.210903  -0.122775  -0.133719
  -0.210903  -0.122775  -0.133719
   0.077159   0.213097   0.039639
   0.077159   0.213097   0.039639
   0.077159   0.213097   0.039639
   0.077159   0.213097   0.039639
   0.077159   0.213097   0.039639
   0.077159   0.213097   0.039639
   0.077159   0.213097   0.039639
   0.077159   0.213097   0.039639
   0.383220  -0.256865   0.375541
   0.383220  -0.256865   0.375541
   0.383220  -0.256865   0.375541
   0.383220  -0.256865   0.375541
   0.383220  -0.256865   0.375541
   0.383220  -0.256865   0.375541
   0.383220  -0.256865   0.375541
   0.383220  -0.256865   0.375541
  -0.002395  -0.055844  -0.136504
  -0.002395  -0.055844  -0.136504
  -0.002395  -0.055844  -0.136504
  -0.002395  -0.055844  -0.136504
  -0.002395  -0.055844  -0.136504
  -0.002395  -0.055844  -0.136504
  -0.002395  -0.055844  -0.136504
  -0.002395  -0.055844  -0.136504
   0.151211   0.194909   0.337513
   0.151211   0.194909   0.337513
   0.151211   0.194909   0.337513
   0.151211   0.194909   0.337513
   0.151211   0.194909   0.337513
   0.151211   0.194909   0.337513
   0.151211   0.194909   0.337513
   0.151211   0.194909   0.337513
   0.449472   0.039461   0.106999
   0.449472   0.039461   0.106999
   0.449472   0.039461   0.106999
   0.449472   0.039461   0.106999
   0.449472   0.039461   0.106999
   0.449472   0.039461   0.106999
   0.449472   0.039461   0.106999
   0.449472   0.039461   0.106999
  -0.263530   0.385468  -0.129057
  -0.263530   0.385468  -0.129057
  -0.263530   0.385468  -0.129057
  -0.263530   0.385468  -0.129057
  -0.263530   0.385468  -0.129057
  -0.263530   0.385468  -0.129057
  -0.263530   0.385468  -0.129057
  -0.263530   0.385468  -0.129057
  -0.449762   0.190716   0.059766
  -0.449762   0.190716   0.059766
  -0.449762   0.190716   0.059766
  -0.449762   0.190716   0.059766
  -0.449762   0.190716   0.059766
  -0.449762   0.190716   0.059766
  -0.449762   0.190716   0.059766
  -0.449762   0.190716   0.059766
  -0.376103  -0.037031  -0.191583
  -0.376103  -0.037031  -0.191583
  -0.376103  -0.037031  -0.191583
  -0.376103  -0.037031  -0.191583
  -0.376103  -0.037031  -0.191583
  -0.376103  -0.037031  -0.191583
  -0.376103  -0.037031  -0.191583
  -0.376103  -0.037031  -0.191583
   0.035811  -0.327943  -0.465279
   0.035811  -0.327943  -0.465279
   0.035811  -0.327943  -0.465279
   0.035811  -0.327943  -0.465279
   0.035811  -0.327943  -0.465279
   0.035811  -0.327943  -0.465279
   0.035811  -0.327943  -0.465279
   0.035811  -0.327943  -0.465279
  -0.317235   0.009182  -0.296866
  -0.317235   0.009182  -0.296866
  -0.317235   0.009182  -0.296866
  -0.317235   0.009182  -0.296866
  -0.317235   0.009182  -0.296866
  -0.317235   0.009182  -0.296866
  -0.317235   0.009182  -0.296866
  -0.317235   0.009182  -0.296866
   0.229582   0.152654  -0.132182
   0.229582   0.152654  -0.132182
   0.229582   0.152654  -0.132182
   0.229582   0.152654  -0.132182
   0.229582   0.152654  -0.132182
   0.229582   0.152654  -0.132182
   0.229582   0.152654  -0.132182
   0.229582   0.152654  -0.132182
   0.174124  -0.169212   0.439144
   0.174124  -0.169212   0.439144
   0.174124  -0.169212   0.439144
   0.174124  -0.169212   0.439144
   0.174124  -0.169212   0.439144
   0.174124  -0.169212   0.439144
   0.174124  -0.169212   0.439144
   0.174124  -0.169212   0.439144
   0.187228  -0.191231   0.490820
   0.187228  -0.191231   0.490820
   0.187228  -0.191231   0.490820
   0.187228  -0.191231   0.490820
   0.187228  -0.191231   0.490820
   0.187228  -0.191231   0.490820
   0.187228  -0.191231   0.490820
   0.187228  -0.191231   0.490820
   0.475665   0.356630   0.310904
   0.475665   0.356630   0.310904
   0.475665   0.356630   0.310904
   0.475665   0.356630   0.310904
   0.475665   0.356630   0.310904
   0.475665   0.356630   0.310904
   0.475665   0.356630   0.310904
   0.475665   0.356630   0.310904
  -0.329418  -0.443357  -0.272811
  -0.329418  -0.443357  -0.272811
  -0.329418  -0.443357  -0.272811
  -0.329418  -0.443357  -0.272811
  -0.329418  -0.443357  -0.272811
  -0.329418  -0.443357  -0.272811
  -0.329418  -0.443357  -0.272811
  -0.329418  -0.443357  -0.272811
  -0.071551  -0.462106  -0.161586
  -0.071551  -0.462106  -0.161586
  -0.071551  -0.462106  -0.161586
  -0.071551  -0.462106  -0.161586
  -0.071551  -0.462106  -0.161586
  -0.071551  -0.462106  -0.161586
  -0.071551  -0.462106  -0.161586
  -0.071551  -0.462106  -0.161586
  -0.281705  -0.321151  -0.239114
  -0.281705  -0.321151  -0.239114
  -0.281705  -0.321151  -0.239114
  -0.281705  -0.321151  -0.239114
  -0.281705  -0.321151  -0.239114
  -0.281705  -0.321151  -0.239114
  -0.281705  -0.321151  -0.239114
  -0.281705  -0.321151  -0.239114
  -0.188994  -0.005789   0.261020
  -0.188994  -0.005789   0.261020
  -0.188994  -0.005789   0.261020
  -0.188994  -0.005789   0.261020
  -0.188994  -0.005789   0.261020
  -0.188994  -0.005789   0.261020
  -0.188994  -0.005789   0.261020
  -0.188994  -0.005789   0.261020
  -0.119500   0.212246   0.418331
  -0.119500   0.212246   0.418331
  -0.119500   0.212246   0.418331
  -0.119500   0.212246   0.418331
  -0.119500   0.212246   0.418331
  -0.119500   0.212246   0.418331
  -0.119500   0.212246   0.418331
  -0.119500   0.212246   0.418331
  -0.182731  -0.312737  -0.306968
  -0.182731  -0.312737  -0.306968
  -0.182731  -0.312737  -0.306968
  -0.182731  -0.312737  -0.306968
  -0.182731  -0.312737  -0.306968
  -0.182731  -0.312737  -0.306968
  -0.182731  -0.312737  -0.306968
  -0.182731  -0.312737  -0.306968
   0.265904   0.252423   0.118636
   0.265904   0.252423   0.118636
   0.265904   0.252423   0.118636
   0.265904   0.252423   0.118636
   0.265904   0.252423   0.118636
   0.265904   0.252423   0.118636
   0.265904   0.252423   0.118636
   0.265904   0.252423   0.118636
   0.422984  -0.299871   0.204834
   0.422984  -0.299871   0.204834
   0.422984  -0.299871   0.204834
   0.422984  -0.299871   0.204834
   0.422984  -0.299871   0.204834
   0.422984  -0.299871   0.204834
   0.422984  -0.299871   0.204834
   0.422984  -0.299871   0.204834
  -0.128884   0.391778   0.032302
  -0.128884   0.391778   0.032302
  -0.128884   0.391778   0.032302
  -0.128884   0.391778   0.032302
  -0.128884   0.391778   0.032302
  -0.128884   0.391778   0.032302
  -0.128884   0.391778   0.032302
  -0.128884   0.391778   0.032302
   0.273442   0.144177  -0.366426
   0.273442   0.144177  -0.366426
   0.273442   0.144177  -0.366426
   0.273442   0.144177  -0.366426
   0.273442   0.144177  -0.366426
   0.273442   0.144177  -0.366426
   0.273442   0.144177  -0.366426
   0.273442   0.144177  -0.366426
   0.327084  -0.355793  -0.274716
   0.327084  -0.355793  -0.274716
   0.327084  -0.355793  -0.274716
   0.327084  -0.355793  -0.274716
   0.327084  -0.355793  -0.274716
   0.327084  -0.355793  -0.274716
   0.327084  -0.355793  -0.274716
   0.327084  -0.355793  -0.274716
  -0.311298   0.102766  -0.218597
  -0.311298   0.102766  -0.218597
  -0.311298   0.102766  -0.218597
  -0.311298   0.102766  -0.218597
  -0.311298   0.102766  -0.218597
  -0.311298   0.102766  -0.218597
  -0.311298   0.102766  -0.218597
  -0.311298   0.102766  -0.218597
  -0.101430   0.422170   0.132760
  -0.101430   0.422170   0.132760
  -0.101430   0.422170   0.132760
  -0.101430   0.422170   0.132760
  -0.101430   0.422170   0.132760
  -0.101430   0.422170   0.132760
  -0.101430   0.422170   0.132760
  -0.101430   0.422170   0.132760
   0.037209  -0.125653   0.272278
   0.037209  -0.125653   0.272278
   0.037209  -0.125653   0.272278
   0.037209  -0.125653   0.272278
   0.037209  -0.125653   0.272278
   0.037209  -0.125653   0.272278
   0.037209  -0.125653   0.272278
   0.037209  -0.125653   0.272278
   0.197186   0.201978   0.275192
   0.197186   0.201978   0.275192
   0.197186   0.201978   0.275192
   0.197186   0.201978   0.275192
   0.197186   0.201978   0.275192
   0.197186   0.201978   0.275192
   0.197186   0.201978   0.275192
   0.197186   0.201978   0.275192
   0.030370  -0.388516  -0.421021
   0.030370  -0.388516  -0.421021
   0.030370  -0.388516  -0.421021
   0.030370  -0.388516  -0.421021
   0.030370  -0.388516  -0.421021
   0.030370  -0.388516  -0.421021
   0.030370  -0.388516  -0.421021
   0.030370  -0.388516  -0.421021
   0.132295   0.128112   0.295589
   0.132295   0.128112   0.295589
   0.132295   0.128112   0.295589
   0.132295   0.128112   0.295589
   0.132295   0.128112   0.295589
   0.132295   0.128112   0.295589
   0.132295   0.128112   0.295589
   0.132295   0.128112   0.295589
   0.169361  -0.054413   0.457857
   0.169361  -0.054413   0.457857
   0.169361  -0.054413   0.457857
   0.169361  -0.054413   0.457857
   0.169361  -0.054413   0.457857
   0.169361  -0.054413   0.457857
   0.169361  -0.054413   0.457857
   0.169361  -0.054413   0.457857
  -0.327017   0.464114  -0.377103
  -0.327017   0.464114  -0.377103
  -0.327017   0.464114  -0.377103
  -0.327017   0.464114  -0.377103
  -0.327017   0.464114  -0.377103
  -0.327017   0.464114  -0.377103
  -0.327017   0.464114  -0.377103
  -0.327017   0.464114  -0.377103
   0.214823   0.453345   0.456000
   0.214823   0.453345   0.456000
   0.214823   0.453345   0.456000
   0.214823   0.453345   0.456000
   0.214823   0.453345   0.456000
   0.214823   0.453345   0.456000
   0.214823   0.453345   0.456000
   0.214823   0.453345   0.456000
  -0.149461  -0.400978  -0.083806
  -0.149461  -0.400978  -0.083806
  -0.149461  -0.400978  -0.083806
  -0.149461  -0.400978  -0.083806
  -0.149461  -0.400978  -0.083806
  -0.149461  -0.400978  -0.083806
  -0.149461  -0.400978  -0.083806
  -0.149461  -0.400978  -0.083806
   0.409867  -0.370185   0.115665
   0.409867  -0.370185   0.115665
   0.409867  -0.370185   0.115665
   0.409867  -0.370185   0.115665
   0.409867  -0.370185   0.115665
   0.409867  -0.370185   0.115665
   0.409867  -0.370185   0.115665
   0.409867  -0.370185   0.115665
   0.403757   0.174310   0.189628
   0.403757   0.174310   0.189628
   0.403757   0.174310   0.189628
   0.403757   0.174310   0.189628
   0.403757   0.174310   0.189628
   0.403757   0.174310   0.189628
   0.403757   0.174310   0.189628
   0.403757   0.174310   0.189628
   0.451688  -0.237036   0.265452
   0.451688  -0.237036   0.265452
   0.451688  -0.237036   0.265452
   0.451688  -0.237036   0.265452
   0.451688  -0.237036   0.265452
   0.451688  -0.237036   0.265452
   0.451688  -0.237036   0.265452
   0.451688  -0.237036   0.265452
  -0.055206  -0.462578  -0.465171
  -0.055206  -0.462578  -0.465171
  -0.055206  -0.462578  -0.465171
  -0.055206  -0.462578  -0.465171
  -0.055206  -0.462578  -0.465171
  -0.055206  -0.462578  -0.465171
  -0.055206  -0.462578  -0.465171
  -0.055206  -0.462578  -0.465171
  -0.128557   0.007195  -0.064369
  -0.128557   0.007195  -0.064369
  -0.128557   0.007195  -0.064369
  -0.128557   0.007195  -0.064369
  -0.128557   0.007195  -0.064369
  -0.128557   0.007195  -0.064369
  -0.128557   0.007195  -0.064369
  -0.128557   0.007195  -0.064369
   0.024387  -0.156284  -0.369067
   0.024387  -0.156284  -0.369067
   0.024387  -0.156284  -0.369067
   0.024387  -0.156284  -0.369067
   0.024387  -0.156284  -0.369067
   0.024387  -0.156284  -0.369067
   0.024387  -0.156284  -0.369067
   0.024387  -0.156284  -0.369067
   0.326484   0.106712   0.322235
   0.326484   0.106712   0.322235
   0.326484   0.106712   0.322235
   0.326484   0.106712   0.322235
   0.326484   0.106712   0.322235
   0.326484   0.106712   0.322235
   0.326484   0.106712   0.322235
   0.326484   0.106712   0.322235
  -0.377059  -0.499052  -0.281055
  -0.377059  -0.499052  -0.281055
  -0.377059  -0.499052  -0.281055
  -0.377059  -0.499052  -0.281055
  -0.377059  -0.499052  -0.281055
  -0.377059  -0.499052  -0.281055
  -0.377059  -0.499052  -0.281055
  -0.377059  -0.499052  -0.281055
   0.436655  -0.485303  -0.149283
   0.436655  -0.485303  -0.149283
   0.436655  -0.485303  -0.149283
   0.436655  -0.485303  -0.149283
   0.436655  -0.485303  -0.149283
   0.436655  -0.485303  -0.149283
   0.436655  -0.485303  -0.149283
   0.436655  -0.485303  -0.149283
   0.256945   0.045470  -0.285585
   0.256945   0.045470  -0.285585
   0.256945   0.045470  -0.285585
   0.256945   0.045470  -0.285585
   0.256945   0.045470  -0.285585
   0.256945   0.045470  -0.285585
   0.256945   0.045470  -0.285585
   0.256945   0.045470  -0.285585
   0.342147   0.385756  -0.475545
   0.342147   0.385756  -0.475545
   0.342147   0.385756  -0.475545
   0.342147   0.385756  -0.475545
   0.342147   0.385756  -0.475545
   0.342147   0.385756  -0.475545
   0.342147   0.385756  -0.475545
   0.342147   0.385756  -0.475545
   0.485090   0.037287  -0.208085
   0.485090   0.037287  -0.208085
   0.485090   0.037287  -0.208085
   0.485090   0.037287  -0.208085
   0.485090   0.037287  -0.208085
   0.485090   0.037287  -0.208085
   0.485090   0.037287  -0.208085
   0.485090   0.037287  -0.208085
  -0.302220  -0.496888  -0.185801
  -0.302220  -0.496888  -0.185801
  -0.302220  -0.496888  -0.185801
  -0.302220  -0.496888  -0.185801
  -0.302220  -0.496888  -0.185801
  -0.302220  -0.496888  -0.185801
  -0.302220  -0.496888  -0.185801
  -0.302220  -0.496888  -0.185801
  -0.267402   0.356656   0.036858
  -0.267402   0.356656   0.036858
  -0.267402   0.356656   0.036858
  -0.267402   0.356656   0.036858
  -0.267402   0.356656   0.036858
  -0.267402   0.356656   0.036858
  -0.267402   0.356656   0.036858
  -0.267402   0.356656   0.036858
   0.334162  -0.074348   0.355687
   0.334162  -0.074348   0.355687
   0.334162  -0.074348   0.355687
   0.334162  -0.074348   0.355687
   0.334162  -0.074348   0.355687
   0.334162  -0.074348   0.355687
   0.334162  -0.074348   0.355687
   0.334162  -0.074348   0.355687
  -0.320577  -0.154072   0.439739
  -0.320577  -0.154072   0.439739
  -0.320577  -0.154072   0.439739
  -0.320577  -0.154072   0.439739
  -0.320577  -0.154072   0.439739
  -0.320577  -0.154072   0.439739
  -0.320577  -0.154072   0.439739
  -0.320577  -0.154072   0.439739
   0.409872   0.241635   0.417439
   0.409872   0.241635   0.417439
   0.409872   0.241635   0.417439
   0.409872   0.241635   0.417439
   0.409872   0.241635   0.417439
   0.409872   0.241635   0.417439
   0.409872   0.241635   0.417439
   0.409872   0.241635   0.417439
   0.440597   0.176696  -0.265348
   0.440597   0.176696  -0.265348
   0.440597   0.176696  -0.265348
   0.440597   0.176696  -0.265348
   0.440597   0.176696  -0.265348
   0.440597   0.176696  -0.265348
   0.440597   0.176696  -0.265348
   0.440597   0.176696  -0.265348
  -0.494958   0.098083  -0.169785
  -0.494958   0.098083  -0.169785
  -0.494958   0.098083  -0.169785
  -0.494958   0.098083  -0.169785
  -0.494958   0.098083  -0.169785
  -0.494958   0.098083  -0.169785
  -0.494958   0.098083  -0.169785
  -0.494958   0.098083  -0.169785
  -0.165930   0.093638   0.357364
  -0.165930   0.093638   0.357364
  -0.165930   0.093638   0.357364
  -0.165930   0.093638   0.357364
  -0.165930   0.093638   0.357364
  -0.165930   0.093638   0.357364
  -0.165930   0.093638   0.357364
  -0.165930   0.093638   0.357364
  -0.219103   0.470277  -0.419389
  -0.219103   0.470277  -0.419389
  -0.219103   0.470277  -0.419389
  -0.219103   0.470277  -0.419389
  -0.219103   0.470277  -0.419389
  -0.219103   0.470277  -0.419389
  -0.219103   0.470277  -0.419389
  -0.219103   0.470277  -0.419389
  -0.034500   0.167489   0.133788
  -0.034500   0.167489   0.133788
  -0.034500   0.167489   0.133788
  -0.034500   0.167489   0.133788
  -0.034500   0.167489   0.133788
  -0.034500   0.167489   0.133788
  -0.034500   0.167489   0.133788
  -0.034500   0.167489   0.133788
   0.430553   0.372764   0.155522
   0.430553   0.372764   0.155522
   0.430553   0.372764   0.155522
   0.430553   0.372764   0.155522
   0.430553   0.372764   0.155522
   0.430553   0.372764   0.155522
   0.430553   0.372764   0.155522
   0.430553   0.372764   0.155522
   0.234230  -0.488217  -0.463153
   0.234230  -0.488217  -0.463153
   0.234230  -0.488217  -0.463153
   0.234230  -0.488217  -0.463153
   0.234230  -0.488217  -0.463153
   0.234230  -0.488217  -0.463153
   0.234230  -0.488217  -0.463153
   0.234230  -0.488217  -0.463153
   0.322031   0.103953   0.179513
   0.322031   0.103953   0.179513
   0.322031   0.103953   0.179513
   0.322031   0.103953   0.179513
   0.322031   0.103953   0.179513
   0.322031   0.103953   0.179513
   0.322031   0.103953   0.179513
   0.322031   0.103953   0.179513
   0.065559  -0.026396   0.235192
   0.065559  -0.026396   0.235192
   0.065559  -0.026396   0.235192
   0.065559  -0.026396   0.235192
   0.065559  -0.026396   0.235192
   0.065559  -0.026396   0.235192
   0.065559  -0.026396   0.235192
   0.065559  -0.026396   0.235192
  -0.241977  -0.252959   0.107292
  -0.241977  -0.252959   0.107292
  -0.241977  -0.252959   0.107292
  -0.241977  -0.252959   0.107292
  -0.241977  -0.252959   0.107292
  -0.241977  -0.252959   0.107292
  -0.241977  -0.252959   0.107292
  -0.241977  -0.252959   0.107292
   0.086710  -0.449037   0.067807
   0.086710  -0.449037   0.067807
   0.086710  -0.449037   0.067807
   0.086710  -0.449037   0.067807
   0.086710  -0.449037   0.067807
   0.086710  -0.449037   0.067807
   0.086710  -0.449037   0.067807
   0.086710  -0.449037   0.067807
   0.121993   0.256558  -0.019272
   0.121993   0.256558  -0.019272
   0.121993   0.256558  -0.019272
   0.121993   0.256558  -0.019272
   0.121993   0.256558  -0.019272
   0.121993   0.256558  -0.019272
   0.121993   0.256558  -0.019272
   0.121993   0.256558  -0.019272
   0.074692   0.214934   0.250938
   0.074692   0.214934   0.250938
   0.074692   0.214934   0.250938
   0.074692   0.214934   0.250938
   0.074692   0.214934   0.250938
   0.074692   0.214934   0.250938
   0.074692   0.214934   0.250938
   0.074692   0.214934   0.250938
   0.211434   0.022829  -0.222861
   0.211434   0.022829  -0.222861
   0.211434   0.022829  -0.222861